 vasp.5.4.1 24Jun15 (build Jul  8 2016 11:28:16) complex                         
 executed on GCC5.3.0_CrayMPICH7. date 2017.04.03  18:04:42
 running on  192 total cores
 distrk:  each k-point on  192 cores,    1 groups
 distr:  one band on NCORES_PER_BAND=  24 cores,    8 groups


--------------------------------------------------------------------------------------------------------


 INCAR:
 POTCAR:    PAW_PBE Mo 08Apr2002                  
 POTCAR:    PAW_PBE Se 06Sep2000                  
 POTCAR:    PAW_PBE Mo 08Apr2002                  
   VRHFIN =Mo: 4p5s4d                                                           
   LEXCH  = PE                                                                  
   EATOM  =   217.5176 eV,   15.9871 Ry                                         
                                                                                
   TITEL  = PAW_PBE Mo 08Apr2002                                                
   LULTRA =        F    use ultrasoft PP ?                                      
   IUNSCR =        1    unscreen: 0-lin 1-nonlin 2-no                           
   RPACOR =    2.200    partial core radius                                     
   POMASS =   95.940; ZVAL   =    6.000    mass and valenz                      
   RCORE  =    2.750    outmost cutoff radius                                   
   RWIGS  =    2.750; RWIGS  =    1.455    wigner-seitz radius (au A)           
   ENMAX  =  224.584; ENMIN  =  168.438 eV                                      
   RCLOC  =    2.111    cutoff for local pot                                    
   LCOR   =        T    correct aug charges                                     
   LPAW   =        T    paw PP                                                  
   EAUG   =  345.278                                                            
   DEXC   =    0.000                                                            
   RMAX   =    2.821    core radius for proj-oper                               
   RAUG   =    1.300    factor for augmentation sphere                          
   RDEP   =    2.815    radius for radial grids                                 
   RDEPT  =    2.211    core radius for aug-charge                              
                                                                                
   Atomic configuration                                                         
   12 entries                                                                   
     n  l   j            E        occ.                                          
     1  0  0.50    -19819.0341   2.0000                                         
     2  0  0.50     -2799.0127   2.0000                                         
     2  1  1.50     -2502.0276   6.0000                                         
     3  0  0.50      -476.4448   2.0000                                         
     3  1  1.50      -379.1496   6.0000                                         
     3  2  2.50      -220.9367  10.0000                                         
     4  0  0.50       -64.3378   2.0000                                         
     4  1  1.50       -38.4773   6.0000                                         
     4  2  2.50        -3.7535   5.0000                                         
     5  0  0.50        -4.0862   1.0000                                         
     5  1  0.50        -2.7701   0.0000                                         
     4  3  2.50        -1.3606   0.0000                                         
   Description                                                                  
     l       E           TYP  RCUT    TYP  RCUT                                 
     2     -3.7534765     23  2.500                                             
     2     -5.1140591     23  2.500                                             
     0     -4.0861560     23  2.600                                             
     0     13.6058260     23  2.600                                             
     1      5.4423304     23  2.750                                             
     1     27.2116520     23  2.750                                             
  local pseudopotential read in
  partial core-charges read in
  partial kinetic energy density read in
  atomic valenz-charges read in
  non local Contribution for L=           2  read in
    real space projection operators read in
  non local Contribution for L=           2  read in
    real space projection operators read in
  non local Contribution for L=           0  read in
    real space projection operators read in
  non local Contribution for L=           0  read in
    real space projection operators read in
  non local Contribution for L=           1  read in
    real space projection operators read in
  non local Contribution for L=           1  read in
    real space projection operators read in
    PAW grid and wavefunctions read in

   number of l-projection  operators is LMAX  =           6
   number of lm-projection operators is LMMAX =          18

 POTCAR:    PAW_PBE Se 06Sep2000                  
   VRHFIN =Se: s2p4                                                             
   LEXCH  = PE                                                                  
   EATOM  =   257.1286 eV,   18.8984 Ry                                         
                                                                                
   TITEL  = PAW_PBE Se 06Sep2000                                                
   LULTRA =        F    use ultrasoft PP ?                                      
   IUNSCR =        1    unscreen: 0-lin 1-nonlin 2-no                           
   RPACOR =    1.900    partial core radius                                     
   POMASS =   78.960; ZVAL   =    6.000    mass and valenz                      
   RCORE  =    2.100    outmost cutoff radius                                   
   RWIGS  =    2.200; RWIGS  =    1.164    wigner-seitz radius (au A)           
   ENMAX  =  211.555; ENMIN  =  158.666 eV                                      
   ICORE  =        3    local potential                                         
   LCOR   =        T    correct aug charges                                     
   LPAW   =        T    paw PP                                                  
   EAUG   =  446.842                                                            
   DEXC   =    0.000                                                            
   RMAX   =    2.147    core radius for proj-oper                               
   RAUG   =    1.300    factor for augmentation sphere                          
   RDEP   =    2.177    radius for radial grids                                 
   RDEPT  =    1.928    core radius for aug-charge                              
                                                                                
   Atomic configuration                                                         
   10 entries                                                                   
     n  l   j            E        occ.                                          
     1  0  0.50    -12503.4787   2.0000                                         
     2  0  0.50     -1606.9547   2.0000                                         
     2  1  1.50     -1413.3140   6.0000                                         
     3  0  0.50      -213.4885   2.0000                                         
     3  1  1.50      -152.9538   6.0000                                         
     3  2  2.50       -53.1221  10.0000                                         
     4  0  0.50       -17.2865   2.0000                                         
     4  1  0.50        -6.5110   4.0000                                         
     4  2  2.50        -6.8029   0.0000                                         
     4  3  2.50        -6.8029   0.0000                                         
   Description                                                                  
     l       E           TYP  RCUT    TYP  RCUT                                 
     0    -17.2865377     23  2.100                                             
     0    -15.3094411     23  2.100                                             
     1     -6.5110275     23  2.100                                             
     1     -0.0695192     23  2.100                                             
     2     -6.8029130     23  2.100                                             
     3     -1.3605826      7  2.100                                             
  local pseudopotential read in
  partial core-charges read in
  partial kinetic energy density read in
  atomic valenz-charges read in
  non local Contribution for L=           0  read in
    real space projection operators read in
  non local Contribution for L=           0  read in
    real space projection operators read in
  non local Contribution for L=           1  read in
    real space projection operators read in
  non local Contribution for L=           1  read in
    real space projection operators read in
  non local Contribution for L=           2  read in
    real space projection operators read in
    PAW grid and wavefunctions read in

   number of l-projection  operators is LMAX  =           5
   number of lm-projection operators is LMMAX =          13

 Optimization of the real space projectors (new method)

 maximal supplied QI-value         = 13.61
 optimisation between [QCUT,QGAM] = [  8.84, 17.69] = [ 21.90, 87.61] Ry 
 Optimized for a Real-space Cutoff    1.96 Angstroem

   l    n(q)    QCUT    max X(q) W(low)/X(q) W(high)/X(q)  e(spline) 
   2      9     8.844    80.908    0.15E-03    0.12E-04    0.12E-05
   2      9     8.844    79.000    0.14E-03    0.12E-04    0.12E-05
   0     10     8.844    52.066    0.34E-04    0.12E-04    0.12E-06
   0     10     8.844    24.514    0.22E-04    0.93E-05    0.98E-07
   1     10     8.844    16.033    0.66E-05    0.47E-04    0.16E-06
   1     10     8.844    11.179    0.56E-05    0.36E-04    0.13E-06
 Optimization of the real space projectors (new method)

 maximal supplied QI-value         = 17.95
 optimisation between [QCUT,QGAM] = [  8.80, 17.59] = [ 21.67, 86.68] Ry 
 Optimized for a Real-space Cutoff    1.59 Angstroem

   l    n(q)    QCUT    max X(q) W(low)/X(q) W(high)/X(q)  e(spline) 
   0      8     8.797   133.320    0.81E-04    0.15E-03    0.86E-07
   0      8     8.797   111.601    0.84E-04    0.16E-03    0.90E-07
   1      8     8.797    47.222    0.18E-03    0.28E-04    0.29E-06
   1      8     8.797    33.775    0.18E-03    0.33E-04    0.29E-06
   2      7     8.797     3.720    0.85E-04    0.16E-03    0.78E-07
  PAW_PBE Mo 08Apr2002                  :
 energy of atom  1       EATOM= -217.5176
 kinetic energy error for atom=    0.0176 (will be added to EATOM!!)
  PAW_PBE Se 06Sep2000                  :
 energy of atom  2       EATOM= -257.1286
 kinetic energy error for atom=    0.0040 (will be added to EATOM!!)


 POSCAR: MoSe2 2H                                
  positions in cartesian coordinates
  No initial velocities read in
 exchange correlation table for  LEXCH =        8
   RHO(1)=    0.500       N(1)  =     2000
   RHO(2)=  100.500       N(2)  =     4000



--------------------------------------------------------------------------------------------------------


 ion  position               nearest neighbor table
   1  0.542  0.000  0.500-  14 2.41  19 2.41  11 2.54  11 2.54   4 3.19   4 3.19
   2  0.663  0.000  0.500-  12 2.54  12 2.54  17 2.54  17 2.54  15 2.54  20 2.54   4 3.27   4 3.27
                             5 3.28   5 3.28
   3  0.788  0.000  0.500-  16 2.51  16 2.51  13 2.55  13 2.55  18 2.55  18 2.55   5 3.32   5 3.32

   4  0.602  0.500  0.500-  12 2.52  17 2.52  14 2.59  14 2.59  19 2.59  19 2.59   1 3.19   1 3.19
                             2 3.27   2 3.27
   5  0.725  0.500  0.500-  15 2.53  15 2.53  20 2.53  20 2.53  13 2.57  18 2.57   2 3.28   2 3.28
                             3 3.32   3 3.32
   6  0.458  0.000  0.500-  23 2.41  28 2.41  11 2.54  11 2.54   9 3.19   9 3.19
   7  0.337  0.000  0.500-  21 2.54  21 2.54  26 2.54  26 2.54  24 2.54  29 2.54   9 3.27   9 3.27
                            10 3.28  10 3.28
   8  0.212  0.000  0.500-  25 2.51  25 2.51  22 2.55  22 2.55  27 2.55  27 2.55  10 3.32  10 3.32

   9  0.398  0.500  0.500-  21 2.52  26 2.52  23 2.59  23 2.59  28 2.59  28 2.59   6 3.19   6 3.19
                             7 3.27   7 3.27
  10  0.275  0.500  0.500-  24 2.53  24 2.53  29 2.53  29 2.53  22 2.57  27 2.57   7 3.28   7 3.28
                             8 3.32   8 3.32
  11  0.500  0.500  0.500-   1 2.54   6 2.54   1 2.54   6 2.54
  12  0.643  0.500  0.416-   4 2.52   2 2.54   2 2.54
  13  0.767  0.500  0.415-   3 2.55   3 2.55   5 2.57
  14  0.579  0.000  0.415-   1 2.41   4 2.59   4 2.59
  15  0.704  0.000  0.416-   5 2.53   5 2.53   2 2.54
  16  0.829  0.500  0.500-   3 2.51   3 2.51
  17  0.643  0.500  0.584-   4 2.52   2 2.54   2 2.54
  18  0.767  0.500  0.585-   3 2.55   3 2.55   5 2.57
  19  0.579  0.000  0.585-   1 2.41   4 2.59   4 2.59
  20  0.704  0.000  0.584-   5 2.53   5 2.53   2 2.54
  21  0.357  0.500  0.416-   9 2.52   7 2.54   7 2.54
  22  0.233  0.500  0.415-   8 2.55   8 2.55  10 2.57
  23  0.421  0.000  0.415-   6 2.41   9 2.59   9 2.59
  24  0.296  0.000  0.416-  10 2.53  10 2.53   7 2.54
  25  0.171  0.500  0.500-   8 2.51   8 2.51
  26  0.357  0.500  0.584-   9 2.52   7 2.54   7 2.54
  27  0.233  0.500  0.585-   8 2.55   8 2.55  10 2.57
  28  0.421  0.000  0.585-   6 2.41   9 2.59   9 2.59
  29  0.296  0.000  0.584-  10 2.53  10 2.53   7 2.54

  LATTYP: Found a simple orthorhombic cell.
 ALAT       =     3.2890000000
 B/A-ratio  =     6.0808756461
 C/A-ratio  =    13.9860139860
  
  Lattice vectors:
  
 A1 = (   0.0000000000,   3.2890000000,   0.0000000000)
 A2 = (   0.0000000000,   0.0000000000, -20.0000000000)
 A3 = ( -46.0000000000,   0.0000000000,   0.0000000000)


Analysis of symmetry for initial positions (statically):
=====================================================================
 Subroutine PRICEL returns:
 Original cell was already a primitive cell.
 

 Routine SETGRP: Setting up the symmetry group for a 
 simple orthorhombic supercell.


 Subroutine GETGRP returns: Found  2 space group operations
 (whereof  2 operations were pure point group operations)
 out of a pool of  8 trial point group operations.


The static configuration has the point symmetry C_1h.


Analysis of symmetry for dynamics (positions and initial velocities):
=====================================================================
 Subroutine PRICEL returns:
 Original cell was already a primitive cell.
 

 Routine SETGRP: Setting up the symmetry group for a 
 simple orthorhombic supercell.


 Subroutine GETGRP returns: Found  2 space group operations
 (whereof  2 operations were pure point group operations)
 out of a pool of  8 trial point group operations.


The dynamic configuration has the point symmetry C_1h.


 Subroutine INISYM returns: Found  2 space group operations
 (whereof  2 operations are pure point group operations),
 and found     1 'primitive' translations



 KPOINTS: Automatic mesh                          

Automatic generation of k-mesh.
Space group operators:
 irot       det(A)        alpha          n_x          n_y          n_z        tau_x        tau_y        tau_z
    1     1.000000     0.000000     1.000000     0.000000     0.000000     0.000000     0.000000     0.000000
    2    -1.000000   179.999999     1.000000     0.000000     0.000000     0.000000     0.000000     0.000000
 
 Subroutine IBZKPT returns following result:
 ===========================================
 
 Found      7 irreducible k-points:
 
 Following reciprocal coordinates:
            Coordinates               Weight
  0.000000  0.000000  0.000000      1.000000
  0.000000  0.083333  0.000000      2.000000
  0.000000  0.166667  0.000000      2.000000
  0.000000  0.250000  0.000000      2.000000
  0.000000  0.333333  0.000000      2.000000
  0.000000  0.416667  0.000000      2.000000
  0.000000  0.500000  0.000000      1.000000
 
 Following cartesian coordinates:
            Coordinates               Weight
  0.000000  0.000000  0.000000      1.000000
  0.000000  0.025337  0.000000      2.000000
  0.000000  0.050674  0.000000      2.000000
  0.000000  0.076011  0.000000      2.000000
  0.000000  0.101348  0.000000      2.000000
  0.000000  0.126685  0.000000      2.000000
  0.000000  0.152022  0.000000      1.000000
 


--------------------------------------------------------------------------------------------------------




 Dimension of arrays:
   k-points           NKPTS =      7   k-points in BZ     NKDIM =      7   number of bands    NBANDS=    104
   number of dos      NEDOS =    301   number of ions     NIONS =     29
   non local maximal  LDIM  =      6   non local SUM 2l+1 LMDIM =     18
   total plane-waves  NPLWV = 648000
   max r-space proj   IRMAX =   6809   max aug-charges    IRDMAX=  13947
   dimension x,y,z NGX =   270 NGY =   20 NGZ =  120
   dimension x,y,z NGXF=   540 NGYF=   40 NGZF=  240
   support grid    NGXF=   540 NGYF=   40 NGZF=  240
   ions per type =              10  19
 NGX,Y,Z   is equivalent  to a cutoff of   9.76, 10.11,  9.97 a.u.
 NGXF,Y,Z  is equivalent  to a cutoff of  19.52, 20.22, 19.95 a.u.


 I would recommend the setting:
   dimension x,y,z NGX =   260 NGY =   19 NGZ =  113
 SYSTEM =  unknown system                          
 POSCAR =  MoSe2 2H                                

 Startparameter for this run:
   NWRITE =      2    write-flag & timer
   PREC   = accura    normal or accurate (medium, high low for compatibility)
   ISTART =      0    job   : 0-new  1-cont  2-samecut
   ICHARG =      2    charge: 1-file 2-atom 10-const
   ISPIN  =      1    spin polarized calculation?
   LNONCOLLINEAR =      F non collinear calculations
   LSORBIT =      F    spin-orbit coupling
   INIWAV =      1    electr: 0-lowe 1-rand  2-diag
   LASPH  =      F    aspherical Exc in radial PAW
   METAGGA=      F    non-selfconsistent MetaGGA calc.

 Electronic Relaxation 1
   ENCUT  =  300.0 eV  22.05 Ry    4.70 a.u.  64.96  4.64 28.25*2*pi/ulx,y,z
   ENINI  =  300.0     initial cutoff
   ENAUG  =  446.8 eV  augmentation charge cutoff
   NELM   =    200;   NELMIN=  2; NELMDL=  0     # of ELM steps 
   EDIFF  = 0.1E-05   stopping-criterion for ELM
   LREAL  =      T    real-space projection
   NLSPLINE    = F    spline interpolate recip. space projectors
   LCOMPAT=      F    compatible to vasp.4.4
   GGA_COMPAT  = T    GGA compatible to vasp.4.4-vasp.4.6
   LMAXPAW     = -100 max onsite density
   LMAXMIX     =    2 max onsite mixed and CHGCAR
   VOSKOWN=      1    Vosko Wilk Nusair interpolation
   ROPT   =   -0.00025  -0.00025
 Ionic relaxation
   EDIFFG = -.1E-02   stopping-criterion for IOM
   NSW    =    100    number of steps for IOM
   NBLOCK =      1;   KBLOCK =    100    inner block; outer block 
   IBRION =      1    ionic relax: 0-MD 1-quasi-New 2-CG
   NFREE  =      0    steps in history (QN), initial steepest desc. (CG)
   ISIF   =      2    stress and relaxation
   IWAVPR =     11    prediction:  0-non 1-charg 2-wave 3-comb
   ISYM   =      2    0-nonsym 1-usesym 2-fastsym
   LCORR  =      T    Harris-Foulkes like correction to forces

   POTIM  = 0.5000    time-step for ionic-motion
   TEIN   =    0.0    initial temperature
   TEBEG  =    0.0;   TEEND  =   0.0 temperature during run
   SMASS  =  -3.00    Nose mass-parameter (am)
   estimated Nose-frequenzy (Omega)   =  0.10E-29 period in steps =****** mass=  -0.484E-25a.u.
   SCALEE = 1.0000    scale energy and forces
   NPACO  =    256;   APACO  = 16.0  distance and # of slots for P.C.
   PSTRESS=    0.0 pullay stress

  Mass of Ions in am
   POMASS =  95.94 78.96
  Ionic Valenz
   ZVAL   =   6.00  6.00
  Atomic Wigner-Seitz radii
   RWIGS  =  -1.00 -1.00
  virtual crystal weights 
   VCA    =   1.00  1.00
   NELECT =     174.0000    total number of electrons
   NUPDOWN=      -1.0000    fix difference up-down

 DOS related values:
   EMIN   =  10.00;   EMAX   =-10.00  energy-range for DOS
   EFERMI =   0.00
   ISMEAR =    -1;   SIGMA  =   0.20  broadening in eV -4-tet -1-fermi 0-gaus

 Electronic relaxation 2 (details)
   IALGO  =     38    algorithm
   LDIAG  =      T    sub-space diagonalisation (order eigenvalues)
   LSUBROT=      F    optimize rotation matrix (better conditioning)
   TURBO    =      0    0=normal 1=particle mesh
   IRESTART =      0    0=no restart 2=restart with 2 vectors
   NREBOOT  =      0    no. of reboots
   NMIN     =      0    reboot dimension
   EREF     =   0.00    reference energy to select bands
   IMIX   =      4    mixing-type and parameters
     AMIX     =   0.40;   BMIX     =  1.00
     AMIX_MAG =   1.60;   BMIX_MAG =  1.00
     AMIN     =   0.10
     WC   =   100.;   INIMIX=   1;  MIXPRE=   1;  MAXMIX= -45

 Intra band minimization:
   WEIMIN = 0.0010     energy-eigenvalue tresh-hold
   EBREAK =  0.24E-08  absolut break condition
   DEPER  =   0.30     relativ break condition  

   TIME   =   0.40     timestep for ELM

  volume/ion in A,a.u.               =     104.34       704.13
  Fermi-wavevector in a.u.,A,eV,Ry     =   0.631889  1.194097  5.432582  0.399283
  Thomas-Fermi vector in A             =   1.695018

 Write flags
   LWAVE  =      F    write WAVECAR
   LCHARG =      F    write CHGCAR
   LVTOT  =      F    write LOCPOT, total local potential
   LVHAR  =      F    write LOCPOT, Hartree potential only
   LELF   =      F    write electronic localiz. function (ELF)
   LORBIT =      0    0 simple, 1 ext, 2 COOP (PROOUT)


 Dipole corrections
   LMONO  =      F    monopole corrections only (constant potential shift)
   LDIPOL =      F    correct potential (dipole corrections)
   IDIPOL =      0    1-x, 2-y, 3-z, 4-all directions 
   EPSILON=  1.0000000 bulk dielectric constant

 Exchange correlation treatment:
   GGA     =    PE    GGA type
   LEXCH   =     8    internal setting for exchange type
   VOSKOWN=      1    Vosko Wilk Nusair interpolation
   LHFCALC =     F    Hartree Fock is set to
   LHFONE  =     F    Hartree Fock one center treatment
   AEXX    =    0.0000 exact exchange contribution

 Linear response parameters
   LEPSILON=     F    determine dielectric tensor
   LRPA    =     F    only Hartree local field effects (RPA)
   LNABLA  =     F    use nabla operator in PAW spheres
   LVEL    =     F    velocity operator in full k-point grid
   LINTERFAST=   F  fast interpolation
   KINTER  =     0    interpolate to denser k-point grid
   CSHIFT  =0.1000    complex shift for real part using Kramers Kronig
   OMEGAMAX=  -1.0    maximum frequency
   DEG_THRESHOLD= 0.2000000E-02 threshold for treating states as degnerate
   RTIME   =    0.100 relaxation time in fs

 Orbital magnetization related:
   ORBITALMAG=     F  switch on orbital magnetization
   LCHIMAG   =     F  perturbation theory with respect to B field
   DQ        =  0.001000  dq finite difference perturbation B field



--------------------------------------------------------------------------------------------------------


 quasi-Newton-method for relaxation of ions
 charge density and potential will be updated during run
 non-spin polarized calculation
 Variant of blocked Davidson
 Davidson routine will perform the subspace rotation
 perform sub-space diagonalisation
    after iterative eigenvector-optimisation
 modified Broyden-mixing scheme, WC =      100.0
 initial mixing is a Kerker type mixing with AMIX =  0.4000 and BMIX =      1.0000
 Hartree-type preconditioning will be used
 using additional bands           17
 real space projection scheme for non local part
 use partial core corrections
 calculate Harris-corrections to forces   (improved forces if not selfconsistent)
 use gradient corrections 
 use of overlap-Matrix (Vanderbilt PP)
 Fermi-smearing in eV        SIGMA  =   0.20


--------------------------------------------------------------------------------------------------------


  energy-cutoff  :      300.00
  volume of cell :     3025.88
      direct lattice vectors                 reciprocal lattice vectors
    46.000000000  0.000000000  0.000000000     0.021739130  0.000000000  0.000000000
     0.000000000  3.289000000  0.000000000     0.000000000  0.304043782  0.000000000
     0.000000000  0.000000000 20.000000000     0.000000000  0.000000000  0.050000000

  length of vectors
    46.000000000  3.289000000 20.000000000     0.021739130  0.304043782  0.050000000



 k-points in units of 2pi/SCALE and weight: Automatic mesh                          
   0.00000000  0.00000000  0.00000000       0.083
   0.00000000  0.02533698  0.00000000       0.167
   0.00000000  0.05067396  0.00000000       0.167
   0.00000000  0.07601095  0.00000000       0.167
   0.00000000  0.10134793  0.00000000       0.167
   0.00000000  0.12668491  0.00000000       0.167
   0.00000000  0.15202189  0.00000000       0.083

 k-points in reciprocal lattice and weights: Automatic mesh                          
   0.00000000  0.00000000  0.00000000       0.083
   0.00000000  0.08333333  0.00000000       0.167
   0.00000000  0.16666667  0.00000000       0.167
   0.00000000  0.25000000  0.00000000       0.167
   0.00000000  0.33333333  0.00000000       0.167
   0.00000000  0.41666667  0.00000000       0.167
   0.00000000  0.50000000  0.00000000       0.083

 position of ions in fractional coordinates (direct lattice) 
   0.54212413  0.00008513  0.50000000
   0.66310522  0.00010033  0.50000000
   0.78755435  0.00004561  0.50000000
   0.60163152  0.50009425  0.50000000
   0.72486087  0.50008209  0.50000000
   0.45787587  0.00008513  0.50000000
   0.33689478  0.00010033  0.50000000
   0.21244565  0.00004561  0.50000000
   0.39836848  0.50009425  0.50000000
   0.27513913  0.50008209  0.50000000
   0.50000000  0.50008513  0.50000000
   0.64253130  0.50010033  0.41592350
   0.76672326  0.50005169  0.41499200
   0.57905783  0.00008817  0.41464050
   0.70447174  0.00008817  0.41611000
   0.82877478  0.50005777  0.50000000
   0.64253130  0.50010033  0.58408150
   0.76672326  0.50005169  0.58501300
   0.57905783  0.00008817  0.58536450
   0.70447174  0.00008817  0.58389500
   0.35746870  0.50010033  0.41592350
   0.23327674  0.50005169  0.41499200
   0.42094217  0.00008817  0.41464050
   0.29552826  0.00008817  0.41611000
   0.17122522  0.50005777  0.50000000
   0.35746870  0.50010033  0.58408150
   0.23327674  0.50005169  0.58501300
   0.42094217  0.00008817  0.58536450
   0.29552826  0.00008817  0.58389500

 position of ions in cartesian coordinates  (Angst):
  24.93771000  0.00028000 10.00000000
  30.50284000  0.00033000 10.00000000
  36.22750000  0.00015000 10.00000000
  27.67505000  1.64481000 10.00000000
  33.34360000  1.64477000 10.00000000
  21.06229000  0.00028000 10.00000000
  15.49716000  0.00033000 10.00000000
   9.77250000  0.00015000 10.00000000
  18.32495000  1.64481000 10.00000000
  12.65640000  1.64477000 10.00000000
  23.00000000  1.64478000 10.00000000
  29.55644000  1.64483000  8.31847000
  35.26927000  1.64467000  8.29984000
  26.63666000  0.00029000  8.29281000
  32.40570000  0.00029000  8.32220000
  38.12364000  1.64469000 10.00000000
  29.55644000  1.64483000 11.68163000
  35.26927000  1.64467000 11.70026000
  26.63666000  0.00029000 11.70729000
  32.40570000  0.00029000 11.67790000
  16.44356000  1.64483000  8.31847000
  10.73073000  1.64467000  8.29984000
  19.36334000  0.00029000  8.29281000
  13.59430000  0.00029000  8.32220000
   7.87636000  1.64469000 10.00000000
  16.44356000  1.64483000 11.68163000
  10.73073000  1.64467000 11.70026000
  19.36334000  0.00029000 11.70729000
  13.59430000  0.00029000 11.67790000



--------------------------------------------------------------------------------------------------------


 k-point  1 :   0.0000 0.0000 0.0000  plane waves:   35877
 k-point  2 :   0.0000 0.0833 0.0000  plane waves:   35843
 k-point  3 :   0.0000 0.1667 0.0000  plane waves:   35759
 k-point  4 :   0.0000 0.2500 0.0000  plane waves:   35687
 k-point  5 :   0.0000 0.3333 0.0000  plane waves:   35591
 k-point  6 :   0.0000 0.4167 0.0000  plane waves:   35578
 k-point  7 :   0.0000 0.5000 0.0000  plane waves:   35582

 maximum and minimum number of plane-waves per node :      1594     1347

 maximum number of plane-waves:     35877
 maximum index in each direction: 
   IXMAX=   64   IYMAX=    4   IZMAX=   28
   IXMIN=  -64   IYMIN=   -5   IZMIN=  -28

 NGX is ok and might be reduce to 258
 NGY is ok and might be reduce to  20
 NGZ is ok and might be reduce to 114

 real space projection operators:
  total allocation   :      16067.66 KBytes
  max/ min on nodes  :        701.67        634.12


 parallel 3D FFT for wavefunctions:
    minimum data exchange during FFTs selected (reduces bandwidth)
 parallel 3D FFT for charge:
    minimum data exchange during FFTs selected (reduces bandwidth)


 total amount of memory used by VASP on root node    41218. kBytes
========================================================================

   base      :      30000. kBytes
   nonlr-proj:       4157. kBytes
   fftplans  :       1876. kBytes
   grid      :       2778. kBytes
   one-center:         31. kBytes
   wavefun   :       2376. kBytes

     INWAV:  cpu time    0.0000: real time    0.0001
 Broyden mixing: mesh for mixing (old mesh)
   NGX =129   NGY =  9   NGZ = 57
  (NGX  =540   NGY  = 40   NGZ  =240)
  gives a total of  66177 points

 initial charge density was supplied:
 charge density of overlapping atoms calculated
 number of electron     174.0000000 magnetization 
 keeping initial charge density in first step


--------------------------------------------------------------------------------------------------------


 Maximum index for non-local projection operator          421
 Maximum index for augmentation-charges          535 (set IRDMAX)


--------------------------------------------------------------------------------------------------------


 First call to EWALD:  gamma=   0.123
 Maximum number of real-space cells 1x10x 2
 Maximum number of reciprocal cells 8x 1x 4

 FEWALD executed in parallel
    FEWALD:  cpu time    0.0040: real time    0.0023


----------------------------------------- Iteration    1(   1)  ---------------------------------------


    POTLOK:  cpu time    0.0680: real time    0.0656
    SETDIJ:  cpu time    0.0040: real time    0.0042
     EDDAV:  cpu time    1.3240: real time    1.3365
       DOS:  cpu time    0.0000: real time    0.0007
    --------------------------------------------
      LOOP:  cpu time    1.3960: real time    1.4326

 eigenvalue-minimisations  :  1592
 total energy-change (2. order) : 0.1213853E+04  (-0.4063100E+04)
 number of electron     174.0000000 magnetization 
 augmentation part      174.0000000 magnetization 

 Free energy of the ion-electron system (eV)
  ---------------------------------------------------
  alpha Z        PSCENC =       129.28637346
  Ewald energy   TEWEN  =     33587.23466949
  -Hartree energ DENC   =    -39750.76890209
  -exchange      EXHF   =         0.00000000
  -V(xc)+E(xc)   XCENC  =      -622.92876877
  PAW double counting   =      6651.53934324    -5678.17540581
  entropy T*S    EENTRO =        -2.41337292
  eigenvalues    EBANDS =      -160.28807436
  atomic energy  EATOM  =      7060.36754918
  Solvation  Ediel_sol  =         0.00000000
  ---------------------------------------------------
  free energy    TOTEN  =      1213.85341144 eV

  energy without entropy =     1216.26678436  energy(sigma->0) =     1215.06009790


--------------------------------------------------------------------------------------------------------




----------------------------------------- Iteration    1(   2)  ---------------------------------------


     EDDAV:  cpu time    1.6360: real time    1.6342
       DOS:  cpu time    0.0000: real time    0.0007
    --------------------------------------------
      LOOP:  cpu time    1.6360: real time    1.6430

 eigenvalue-minimisations  :  2160
 total energy-change (2. order) :-0.1171472E+04  (-0.1122570E+04)
 number of electron     174.0000000 magnetization 
 augmentation part      174.0000000 magnetization 

 Free energy of the ion-electron system (eV)
  ---------------------------------------------------
  alpha Z        PSCENC =       129.28637346
  Ewald energy   TEWEN  =     33587.23466949
  -Hartree energ DENC   =    -39750.76890209
  -exchange      EXHF   =         0.00000000
  -V(xc)+E(xc)   XCENC  =      -622.92876877
  PAW double counting   =      6651.53934324    -5678.17540581
  entropy T*S    EENTRO =        -0.77032499
  eigenvalues    EBANDS =     -1333.40279920
  atomic energy  EATOM  =      7060.36754918
  Solvation  Ediel_sol  =         0.00000000
  ---------------------------------------------------
  free energy    TOTEN  =        42.38173452 eV

  energy without entropy =       43.15205952  energy(sigma->0) =       42.76689702


--------------------------------------------------------------------------------------------------------




----------------------------------------- Iteration    1(   3)  ---------------------------------------


     EDDAV:  cpu time    1.3880: real time    1.3892
       DOS:  cpu time    0.0000: real time    0.0008
    --------------------------------------------
      LOOP:  cpu time    1.3880: real time    1.3975

 eigenvalue-minimisations  :  1736
 total energy-change (2. order) :-0.2334926E+03  (-0.2312318E+03)
 number of electron     174.0000000 magnetization 
 augmentation part      174.0000000 magnetization 

 Free energy of the ion-electron system (eV)
  ---------------------------------------------------
  alpha Z        PSCENC =       129.28637346
  Ewald energy   TEWEN  =     33587.23466949
  -Hartree energ DENC   =    -39750.76890209
  -exchange      EXHF   =         0.00000000
  -V(xc)+E(xc)   XCENC  =      -622.92876877
  PAW double counting   =      6651.53934324    -5678.17540581
  entropy T*S    EENTRO =        -0.86455342
  eigenvalues    EBANDS =     -1566.80117696
  atomic energy  EATOM  =      7060.36754918
  Solvation  Ediel_sol  =         0.00000000
  ---------------------------------------------------
  free energy    TOTEN  =      -191.11087166 eV

  energy without entropy =     -190.24631825  energy(sigma->0) =     -190.67859495


--------------------------------------------------------------------------------------------------------




----------------------------------------- Iteration    1(   4)  ---------------------------------------


     EDDAV:  cpu time    1.3840: real time    1.3855
       DOS:  cpu time    0.0000: real time    0.0016
    --------------------------------------------
      LOOP:  cpu time    1.3880: real time    1.3957

 eigenvalue-minimisations  :  1752
 total energy-change (2. order) :-0.9353053E+01  (-0.9109582E+01)
 number of electron     174.0000000 magnetization 
 augmentation part      174.0000000 magnetization 

 Free energy of the ion-electron system (eV)
  ---------------------------------------------------
  alpha Z        PSCENC =       129.28637346
  Ewald energy   TEWEN  =     33587.23466949
  -Hartree energ DENC   =    -39750.76890209
  -exchange      EXHF   =         0.00000000
  -V(xc)+E(xc)   XCENC  =      -622.92876877
  PAW double counting   =      6651.53934324    -5678.17540581
  entropy T*S    EENTRO =        -0.97113323
  eigenvalues    EBANDS =     -1576.04764981
  atomic energy  EATOM  =      7060.36754918
  Solvation  Ediel_sol  =         0.00000000
  ---------------------------------------------------
  free energy    TOTEN  =      -200.46392433 eV

  energy without entropy =     -199.49279109  energy(sigma->0) =     -199.97835771


--------------------------------------------------------------------------------------------------------




----------------------------------------- Iteration    1(   5)  ---------------------------------------


     EDDAV:  cpu time    1.6720: real time    1.6701
       DOS:  cpu time    0.0000: real time    0.0007
    CHARGE:  cpu time    0.1520: real time    0.1519
    MIXING:  cpu time    0.0000: real time    0.0012
    --------------------------------------------
      LOOP:  cpu time    1.8240: real time    1.8321

 eigenvalue-minimisations  :  2216
 total energy-change (2. order) :-0.5375460E+00  (-0.5239529E+00)
 number of electron     173.9999952 magnetization 
 augmentation part      -13.5056856 magnetization 

 Broyden mixing:
  rms(total) = 0.57542E+01    rms(broyden)= 0.57541E+01
  rms(prec ) = 0.57731E+01
  weight for this iteration     100.00

 Free energy of the ion-electron system (eV)
  ---------------------------------------------------
  alpha Z        PSCENC =       129.28637346
  Ewald energy   TEWEN  =     33587.23466949
  -Hartree energ DENC   =    -39750.76890209
  -exchange      EXHF   =         0.00000000
  -V(xc)+E(xc)   XCENC  =      -622.92876877
  PAW double counting   =      6651.53934324    -5678.17540581
  entropy T*S    EENTRO =        -1.02423599
  eigenvalues    EBANDS =     -1576.53209301
  atomic energy  EATOM  =      7060.36754918
  Solvation  Ediel_sol  =         0.00000000
  ---------------------------------------------------
  free energy    TOTEN  =      -201.00147028 eV

  energy without entropy =     -199.97723430  energy(sigma->0) =     -200.48935229


--------------------------------------------------------------------------------------------------------




----------------------------------------- Iteration    1(   6)  ---------------------------------------


    POTLOK:  cpu time    0.0560: real time    0.0544
    SETDIJ:  cpu time    0.0040: real time    0.0041
     EDDAV:  cpu time    1.5600: real time    1.5623
       DOS:  cpu time    0.0000: real time    0.0009
    CHARGE:  cpu time    0.1440: real time    0.1455
    MIXING:  cpu time    0.0040: real time    0.0035
    --------------------------------------------
      LOOP:  cpu time    1.7680: real time    1.7796

 eigenvalue-minimisations  :  2024
 total energy-change (2. order) : 0.4422103E+01  (-0.9415722E+01)
 number of electron     173.9999952 magnetization 
 augmentation part       -7.2744851 magnetization 

 Broyden mixing:
  rms(total) = 0.22064E+01    rms(broyden)= 0.22062E+01
  rms(prec ) = 0.23511E+01
  weight for this iteration     100.00

 eigenvalues of (default mixing * dielectric matrix)
  average eigenvalue GAMMA=   1.1584
  1.1584

 Free energy of the ion-electron system (eV)
  ---------------------------------------------------
  alpha Z        PSCENC =       129.28637346
  Ewald energy   TEWEN  =     33587.23466949
  -Hartree energ DENC   =    -39701.60970057
  -exchange      EXHF   =         0.00000000
  -V(xc)+E(xc)   XCENC  =      -616.95280881
  PAW double counting   =      8339.11781518    -7372.93494167
  entropy T*S    EENTRO =        -1.45703994
  eigenvalues    EBANDS =     -1619.63128318
  atomic energy  EATOM  =      7060.36754918
  Solvation  Ediel_sol  =         0.00000000
  ---------------------------------------------------
  free energy    TOTEN  =      -196.57936684 eV

  energy without entropy =     -195.12232690  energy(sigma->0) =     -195.85084687


--------------------------------------------------------------------------------------------------------




----------------------------------------- Iteration    1(   7)  ---------------------------------------


    POTLOK:  cpu time    0.0560: real time    0.0550
    SETDIJ:  cpu time    0.0040: real time    0.0041
     EDDAV:  cpu time    1.7720: real time    1.7748
       DOS:  cpu time    0.0000: real time    0.0009
    CHARGE:  cpu time    0.1480: real time    0.1454
    MIXING:  cpu time    0.0000: real time    0.0009
    --------------------------------------------
      LOOP:  cpu time    1.9800: real time    1.9899

 eigenvalue-minimisations  :  2336
 total energy-change (2. order) :-0.4895783E+02  (-0.3981253E+02)
 number of electron     173.9999946 magnetization 
 augmentation part       -9.7742710 magnetization 

 Broyden mixing:
  rms(total) = 0.37204E+01    rms(broyden)= 0.37192E+01
  rms(prec ) = 0.48606E+01
  weight for this iteration     100.00

 eigenvalues of (default mixing * dielectric matrix)
  average eigenvalue GAMMA=   0.8370
  1.3790  0.2949

 Free energy of the ion-electron system (eV)
  ---------------------------------------------------
  alpha Z        PSCENC =       129.28637346
  Ewald energy   TEWEN  =     33587.23466949
  -Hartree energ DENC   =    -39955.97126932
  -exchange      EXHF   =         0.00000000
  -V(xc)+E(xc)   XCENC  =      -618.79146597
  PAW double counting   =      9641.87756899    -8678.64854490
  entropy T*S    EENTRO =        -2.26332930
  eigenvalues    EBANDS =     -1408.62875182
  atomic energy  EATOM  =      7060.36754918
  Solvation  Ediel_sol  =         0.00000000
  ---------------------------------------------------
  free energy    TOTEN  =      -245.53720017 eV

  energy without entropy =     -243.27387087  energy(sigma->0) =     -244.40553552


--------------------------------------------------------------------------------------------------------




----------------------------------------- Iteration    1(   8)  ---------------------------------------


    POTLOK:  cpu time    0.0520: real time    0.0534
    SETDIJ:  cpu time    0.0040: real time    0.0041
     EDDAV:  cpu time    1.7640: real time    1.7658
       DOS:  cpu time    0.0040: real time    0.0008
    CHARGE:  cpu time    0.1480: real time    0.1485
    MIXING:  cpu time    0.0000: real time    0.0010
    --------------------------------------------
      LOOP:  cpu time    1.9720: real time    1.9822

 eigenvalue-minimisations  :  2304
 total energy-change (2. order) : 0.4889004E+02  (-0.3298118E+02)
 number of electron     173.9999952 magnetization 
 augmentation part      -11.8353451 magnetization 

 Broyden mixing:
  rms(total) = 0.23854E+01    rms(broyden)= 0.23835E+01
  rms(prec ) = 0.25036E+01
  weight for this iteration     100.00

 eigenvalues of (default mixing * dielectric matrix)
  average eigenvalue GAMMA=   0.8550
  1.8878  0.4526  0.2246

 Free energy of the ion-electron system (eV)
  ---------------------------------------------------
  alpha Z        PSCENC =       129.28637346
  Ewald energy   TEWEN  =     33587.23466949
  -Hartree energ DENC   =    -39811.50464794
  -exchange      EXHF   =         0.00000000
  -V(xc)+E(xc)   XCENC  =      -618.70164004
  PAW double counting   =     10059.86738950    -9097.76095590
  entropy T*S    EENTRO =        -1.88444831
  eigenvalues    EBANDS =     -1503.55145451
  atomic energy  EATOM  =      7060.36754918
  Solvation  Ediel_sol  =         0.00000000
  ---------------------------------------------------
  free energy    TOTEN  =      -196.64716504 eV

  energy without entropy =     -194.76271673  energy(sigma->0) =     -195.70494089


--------------------------------------------------------------------------------------------------------




----------------------------------------- Iteration    1(   9)  ---------------------------------------


    POTLOK:  cpu time    0.0560: real time    0.0538
    SETDIJ:  cpu time    0.0040: real time    0.0041
     EDDAV:  cpu time    1.6320: real time    1.6354
       DOS:  cpu time    0.0000: real time    0.0007
    CHARGE:  cpu time    0.1520: real time    0.1517
    MIXING:  cpu time    0.0040: real time    0.0011
    --------------------------------------------
      LOOP:  cpu time    1.8480: real time    1.8565

 eigenvalue-minimisations  :  2128
 total energy-change (2. order) : 0.2963577E+01  (-0.1058719E+02)
 number of electron     173.9999952 magnetization 
 augmentation part      -11.8222315 magnetization 

 Broyden mixing:
  rms(total) = 0.13272E+01    rms(broyden)= 0.13269E+01
  rms(prec ) = 0.13961E+01
  weight for this iteration     100.00

 eigenvalues of (default mixing * dielectric matrix)
  average eigenvalue GAMMA=   0.7909
  2.0706  0.4283  0.4283  0.2363

 Free energy of the ion-electron system (eV)
  ---------------------------------------------------
  alpha Z        PSCENC =       129.28637346
  Ewald energy   TEWEN  =     33587.23466949
  -Hartree energ DENC   =    -39832.11514928
  -exchange      EXHF   =         0.00000000
  -V(xc)+E(xc)   XCENC  =      -617.10125914
  PAW double counting   =     10865.46864918    -9905.39991969
  entropy T*S    EENTRO =        -1.23616405
  eigenvalues    EBANDS =     -1480.18833761
  atomic energy  EATOM  =      7060.36754918
  Solvation  Ediel_sol  =         0.00000000
  ---------------------------------------------------
  free energy    TOTEN  =      -193.68358846 eV

  energy without entropy =     -192.44742440  energy(sigma->0) =     -193.06550643


--------------------------------------------------------------------------------------------------------




----------------------------------------- Iteration    1(  10)  ---------------------------------------


    POTLOK:  cpu time    0.0520: real time    0.0548
    SETDIJ:  cpu time    0.0080: real time    0.0041
     EDDAV:  cpu time    1.5840: real time    1.5876
       DOS:  cpu time    0.0000: real time    0.0008
    CHARGE:  cpu time    0.1480: real time    0.1468
    MIXING:  cpu time    0.0000: real time    0.0010
    --------------------------------------------
      LOOP:  cpu time    1.7920: real time    1.8037

 eigenvalue-minimisations  :  2056
 total energy-change (2. order) : 0.3001981E+01  (-0.1979160E+01)
 number of electron     173.9999951 magnetization 
 augmentation part      -11.0665701 magnetization 

 Broyden mixing:
  rms(total) = 0.64000E+00    rms(broyden)= 0.63969E+00
  rms(prec ) = 0.67102E+00
  weight for this iteration     100.00

 eigenvalues of (default mixing * dielectric matrix)
  average eigenvalue GAMMA=   0.7173
  2.0438  0.5035  0.5035  0.2497  0.2859

 Free energy of the ion-electron system (eV)
  ---------------------------------------------------
  alpha Z        PSCENC =       129.28637346
  Ewald energy   TEWEN  =     33587.23466949
  -Hartree energ DENC   =    -39826.69531069
  -exchange      EXHF   =         0.00000000
  -V(xc)+E(xc)   XCENC  =      -615.85577087
  PAW double counting   =     11090.76165146   -10131.38617857
  entropy T*S    EENTRO =        -1.15340562
  eigenvalues    EBANDS =     -1483.24118503
  atomic energy  EATOM  =      7060.36754918
  Solvation  Ediel_sol  =         0.00000000
  ---------------------------------------------------
  free energy    TOTEN  =      -190.68160718 eV

  energy without entropy =     -189.52820156  energy(sigma->0) =     -190.10490437


--------------------------------------------------------------------------------------------------------




----------------------------------------- Iteration    1(  11)  ---------------------------------------


    POTLOK:  cpu time    0.0560: real time    0.0555
    SETDIJ:  cpu time    0.0040: real time    0.0041
     EDDAV:  cpu time    1.5440: real time    1.5451
       DOS:  cpu time    0.0040: real time    0.0008
    CHARGE:  cpu time    0.1520: real time    0.1524
    MIXING:  cpu time    0.0000: real time    0.0010
    --------------------------------------------
      LOOP:  cpu time    1.7600: real time    1.7666

 eigenvalue-minimisations  :  2000
 total energy-change (2. order) : 0.5779996E+00  (-0.2757079E+00)
 number of electron     173.9999951 magnetization 
 augmentation part      -10.5040699 magnetization 

 Broyden mixing:
  rms(total) = 0.36435E+00    rms(broyden)= 0.36432E+00
  rms(prec ) = 0.37704E+00
  weight for this iteration     100.00

 eigenvalues of (default mixing * dielectric matrix)
  average eigenvalue GAMMA=   0.7290
  1.9522  0.6705  0.6705  0.5292  0.2636  0.2879

 Free energy of the ion-electron system (eV)
  ---------------------------------------------------
  alpha Z        PSCENC =       129.28637346
  Ewald energy   TEWEN  =     33587.23466949
  -Hartree energ DENC   =    -39822.44689555
  -exchange      EXHF   =         0.00000000
  -V(xc)+E(xc)   XCENC  =      -615.36290077
  PAW double counting   =     11058.93421224   -10099.64713033
  entropy T*S    EENTRO =        -1.25025394
  eigenvalues    EBANDS =     -1487.21923141
  atomic energy  EATOM  =      7060.36754918
  Solvation  Ediel_sol  =         0.00000000
  ---------------------------------------------------
  free energy    TOTEN  =      -190.10360761 eV

  energy without entropy =     -188.85335368  energy(sigma->0) =     -189.47848065


--------------------------------------------------------------------------------------------------------




----------------------------------------- Iteration    1(  12)  ---------------------------------------


    POTLOK:  cpu time    0.0520: real time    0.0537
    SETDIJ:  cpu time    0.0080: real time    0.0043
     EDDAV:  cpu time    1.6800: real time    1.6813
       DOS:  cpu time    0.0000: real time    0.0008
    CHARGE:  cpu time    0.1440: real time    0.1464
    MIXING:  cpu time    0.0040: real time    0.0010
    --------------------------------------------
      LOOP:  cpu time    1.8880: real time    1.8952

 eigenvalue-minimisations  :  2216
 total energy-change (2. order) : 0.1096609E+00  (-0.5655440E-01)
 number of electron     173.9999951 magnetization 
 augmentation part      -10.2530142 magnetization 

 Broyden mixing:
  rms(total) = 0.26110E+00    rms(broyden)= 0.26109E+00
  rms(prec ) = 0.26983E+00
  weight for this iteration     100.00

 eigenvalues of (default mixing * dielectric matrix)
  average eigenvalue GAMMA=   0.7864
  1.8960  0.9950  0.9950  0.5354  0.5354  0.2584  0.2899

 Free energy of the ion-electron system (eV)
  ---------------------------------------------------
  alpha Z        PSCENC =       129.28637346
  Ewald energy   TEWEN  =     33587.23466949
  -Hartree energ DENC   =    -39824.32560305
  -exchange      EXHF   =         0.00000000
  -V(xc)+E(xc)   XCENC  =      -615.09207934
  PAW double counting   =     11010.91870824   -10051.70853088
  entropy T*S    EENTRO =        -1.30315272
  eigenvalues    EBANDS =     -1485.37188115
  atomic energy  EATOM  =      7060.36754918
  Solvation  Ediel_sol  =         0.00000000
  ---------------------------------------------------
  free energy    TOTEN  =      -189.99394676 eV

  energy without entropy =     -188.69079403  energy(sigma->0) =     -189.34237039


--------------------------------------------------------------------------------------------------------




----------------------------------------- Iteration    1(  13)  ---------------------------------------


    POTLOK:  cpu time    0.0560: real time    0.0560
    SETDIJ:  cpu time    0.0040: real time    0.0042
     EDDAV:  cpu time    1.5760: real time    1.5783
       DOS:  cpu time    0.0000: real time    0.0009
    CHARGE:  cpu time    0.1480: real time    0.1479
    MIXING:  cpu time    0.0040: real time    0.0011
    --------------------------------------------
      LOOP:  cpu time    1.7880: real time    1.7973

 eigenvalue-minimisations  :  2040
 total energy-change (2. order) : 0.5876425E-01  (-0.2301613E-01)
 number of electron     173.9999951 magnetization 
 augmentation part      -10.1606201 magnetization 

 Broyden mixing:
  rms(total) = 0.19538E+00    rms(broyden)= 0.19537E+00
  rms(prec ) = 0.20295E+00
  weight for this iteration     100.00

 eigenvalues of (default mixing * dielectric matrix)
  average eigenvalue GAMMA=   0.8562
  1.7573  1.4582  1.4582  0.6010  0.6010  0.2599  0.2881  0.4263

 Free energy of the ion-electron system (eV)
  ---------------------------------------------------
  alpha Z        PSCENC =       129.28637346
  Ewald energy   TEWEN  =     33587.23466949
  -Hartree energ DENC   =    -39828.43861817
  -exchange      EXHF   =         0.00000000
  -V(xc)+E(xc)   XCENC  =      -614.79011768
  PAW double counting   =     11014.41676587   -10055.38545273
  entropy T*S    EENTRO =        -1.28098647
  eigenvalues    EBANDS =     -1481.34536547
  atomic energy  EATOM  =      7060.36754918
  Solvation  Ediel_sol  =         0.00000000
  ---------------------------------------------------
  free energy    TOTEN  =      -189.93518251 eV

  energy without entropy =     -188.65419604  energy(sigma->0) =     -189.29468927


--------------------------------------------------------------------------------------------------------




----------------------------------------- Iteration    1(  14)  ---------------------------------------


    POTLOK:  cpu time    0.0520: real time    0.0539
    SETDIJ:  cpu time    0.0040: real time    0.0041
     EDDAV:  cpu time    1.6200: real time    1.6205
       DOS:  cpu time    0.0000: real time    0.0007
    CHARGE:  cpu time    0.1480: real time    0.1452
    MIXING:  cpu time    0.0000: real time    0.0010
    --------------------------------------------
      LOOP:  cpu time    1.8240: real time    1.8328

 eigenvalue-minimisations  :  2096
 total energy-change (2. order) : 0.5968360E-01  (-0.1406834E-01)
 number of electron     173.9999951 magnetization 
 augmentation part      -10.0678533 magnetization 

 Broyden mixing:
  rms(total) = 0.10497E+00    rms(broyden)= 0.10495E+00
  rms(prec ) = 0.10867E+00
  weight for this iteration     100.00

 eigenvalues of (default mixing * dielectric matrix)
  average eigenvalue GAMMA=   0.9347
  2.0474  2.0474  1.3100  0.6958  0.6958  0.6633  0.2600  0.2873  0.4057

 Free energy of the ion-electron system (eV)
  ---------------------------------------------------
  alpha Z        PSCENC =       129.28637346
  Ewald energy   TEWEN  =     33587.23466949
  -Hartree energ DENC   =    -39837.79698198
  -exchange      EXHF   =         0.00000000
  -V(xc)+E(xc)   XCENC  =      -614.41663669
  PAW double counting   =     11032.71783870   -10073.90693669
  entropy T*S    EENTRO =        -1.30130169
  eigenvalues    EBANDS =     -1472.06007269
  atomic energy  EATOM  =      7060.36754918
  Solvation  Ediel_sol  =         0.00000000
  ---------------------------------------------------
  free energy    TOTEN  =      -189.87549891 eV

  energy without entropy =     -188.57419721  energy(sigma->0) =     -189.22484806


--------------------------------------------------------------------------------------------------------




----------------------------------------- Iteration    1(  15)  ---------------------------------------


    POTLOK:  cpu time    0.0560: real time    0.0545
    SETDIJ:  cpu time    0.0040: real time    0.0043
     EDDAV:  cpu time    1.5840: real time    1.5835
       DOS:  cpu time    0.0000: real time    0.0008
    CHARGE:  cpu time    0.1440: real time    0.1460
    MIXING:  cpu time    0.0040: real time    0.0012
    --------------------------------------------
      LOOP:  cpu time    1.7920: real time    1.7984

 eigenvalue-minimisations  :  2056
 total energy-change (2. order) : 0.2265343E-01  (-0.1317684E-01)
 number of electron     173.9999951 magnetization 
 augmentation part       -9.8948844 magnetization 

 Broyden mixing:
  rms(total) = 0.38470E-01    rms(broyden)= 0.38452E-01
  rms(prec ) = 0.40546E-01
  weight for this iteration     100.00

 eigenvalues of (default mixing * dielectric matrix)
  average eigenvalue GAMMA=   0.9090
  1.8975  1.8497  1.8497  0.7020  0.7020  0.6173  0.5341  0.2601  0.2869  0.3908

 Free energy of the ion-electron system (eV)
  ---------------------------------------------------
  alpha Z        PSCENC =       129.28637346
  Ewald energy   TEWEN  =     33587.23466949
  -Hartree energ DENC   =    -39845.06780916
  -exchange      EXHF   =         0.00000000
  -V(xc)+E(xc)   XCENC  =      -614.06507447
  PAW double counting   =     11043.16169129   -10084.50215638
  entropy T*S    EENTRO =        -1.31843577
  eigenvalues    EBANDS =     -1464.94965313
  atomic energy  EATOM  =      7060.36754918
  Solvation  Ediel_sol  =         0.00000000
  ---------------------------------------------------
  free energy    TOTEN  =      -189.85284548 eV

  energy without entropy =     -188.53440970  energy(sigma->0) =     -189.19362759


--------------------------------------------------------------------------------------------------------




----------------------------------------- Iteration    1(  16)  ---------------------------------------


    POTLOK:  cpu time    0.0520: real time    0.0537
    SETDIJ:  cpu time    0.0040: real time    0.0041
     EDDAV:  cpu time    1.5760: real time    1.5786
       DOS:  cpu time    0.0040: real time    0.0008
    CHARGE:  cpu time    0.1480: real time    0.1480
    MIXING:  cpu time    0.0000: real time    0.0011
    --------------------------------------------
      LOOP:  cpu time    1.7840: real time    1.7940

 eigenvalue-minimisations  :  2040
 total energy-change (2. order) :-0.7755353E-03  (-0.1691444E-02)
 number of electron     173.9999951 magnetization 
 augmentation part       -9.8996107 magnetization 

 Broyden mixing:
  rms(total) = 0.30941E-01    rms(broyden)= 0.30939E-01
  rms(prec ) = 0.32667E-01
  weight for this iteration     100.00

 eigenvalues of (default mixing * dielectric matrix)
  average eigenvalue GAMMA=   0.9242
  2.0417  2.0417  1.8701  0.7363  0.7363  0.6845  0.6845  0.2600  0.2871  0.4118
  0.4118

 Free energy of the ion-electron system (eV)
  ---------------------------------------------------
  alpha Z        PSCENC =       129.28637346
  Ewald energy   TEWEN  =     33587.23466949
  -Hartree energ DENC   =    -39846.16339781
  -exchange      EXHF   =         0.00000000
  -V(xc)+E(xc)   XCENC  =      -614.06056010
  PAW double counting   =     11049.63363185   -10090.97172097
  entropy T*S    EENTRO =        -1.30956497
  eigenvalues    EBANDS =     -1463.87060114
  atomic energy  EATOM  =      7060.36754918
  Solvation  Ediel_sol  =         0.00000000
  ---------------------------------------------------
  free energy    TOTEN  =      -189.85362101 eV

  energy without entropy =     -188.54405604  energy(sigma->0) =     -189.19883852


--------------------------------------------------------------------------------------------------------




----------------------------------------- Iteration    1(  17)  ---------------------------------------


    POTLOK:  cpu time    0.0560: real time    0.0539
    SETDIJ:  cpu time    0.0040: real time    0.0041
     EDDAV:  cpu time    1.4360: real time    1.4378
       DOS:  cpu time    0.0000: real time    0.0008
    CHARGE:  cpu time    0.1480: real time    0.1474
    MIXING:  cpu time    0.0000: real time    0.0012
    --------------------------------------------
      LOOP:  cpu time    1.6440: real time    1.6534

 eigenvalue-minimisations  :  1792
 total energy-change (2. order) : 0.4912863E-03  (-0.2329527E-03)
 number of electron     173.9999951 magnetization 
 augmentation part       -9.8964993 magnetization 

 Broyden mixing:
  rms(total) = 0.21302E-01    rms(broyden)= 0.21301E-01
  rms(prec ) = 0.22874E-01
  weight for this iteration     100.00

 eigenvalues of (default mixing * dielectric matrix)
  average eigenvalue GAMMA=   1.0203
  2.4101  2.4101  1.5468  1.5468  0.8631  0.6961  0.6961  0.6714  0.2600  0.2871
  0.4554  0.4004

 Free energy of the ion-electron system (eV)
  ---------------------------------------------------
  alpha Z        PSCENC =       129.28637346
  Ewald energy   TEWEN  =     33587.23466949
  -Hartree energ DENC   =    -39849.54348322
  -exchange      EXHF   =         0.00000000
  -V(xc)+E(xc)   XCENC  =      -614.00395313
  PAW double counting   =     11051.21669924   -10092.56189798
  entropy T*S    EENTRO =        -1.31219749
  eigenvalues    EBANDS =     -1460.53688928
  atomic energy  EATOM  =      7060.36754918
  Solvation  Ediel_sol  =         0.00000000
  ---------------------------------------------------
  free energy    TOTEN  =      -189.85312972 eV

  energy without entropy =     -188.54093223  energy(sigma->0) =     -189.19703098


--------------------------------------------------------------------------------------------------------




----------------------------------------- Iteration    1(  18)  ---------------------------------------


    POTLOK:  cpu time    0.0560: real time    0.0544
    SETDIJ:  cpu time    0.0040: real time    0.0041
     EDDAV:  cpu time    1.5640: real time    1.5645
       DOS:  cpu time    0.0000: real time    0.0010
    CHARGE:  cpu time    0.1480: real time    0.1458
    MIXING:  cpu time    0.0000: real time    0.0014
    --------------------------------------------
      LOOP:  cpu time    1.7720: real time    1.7789

 eigenvalue-minimisations  :  2000
 total energy-change (2. order) : 0.4879455E-03  (-0.3667481E-03)
 number of electron     173.9999951 magnetization 
 augmentation part       -9.8822817 magnetization 

 Broyden mixing:
  rms(total) = 0.80115E-02    rms(broyden)= 0.80031E-02
  rms(prec ) = 0.93098E-02
  weight for this iteration     100.00

 eigenvalues of (default mixing * dielectric matrix)
  average eigenvalue GAMMA=   1.0570
  2.9531  2.2066  1.8249  1.3917  0.9404  0.9404  0.7001  0.7001  0.6831  0.2600
  0.2871  0.4535  0.3995

 Free energy of the ion-electron system (eV)
  ---------------------------------------------------
  alpha Z        PSCENC =       129.28637346
  Ewald energy   TEWEN  =     33587.23466949
  -Hartree energ DENC   =    -39855.31427909
  -exchange      EXHF   =         0.00000000
  -V(xc)+E(xc)   XCENC  =      -613.89610776
  PAW double counting   =     11052.81579764   -10094.18243413
  entropy T*S    EENTRO =        -1.31440443
  eigenvalues    EBANDS =     -1454.84980616
  atomic energy  EATOM  =      7060.36754918
  Solvation  Ediel_sol  =         0.00000000
  ---------------------------------------------------
  free energy    TOTEN  =      -189.85264178 eV

  energy without entropy =     -188.53823735  energy(sigma->0) =     -189.19543957


--------------------------------------------------------------------------------------------------------




----------------------------------------- Iteration    1(  19)  ---------------------------------------


    POTLOK:  cpu time    0.0560: real time    0.0540
    SETDIJ:  cpu time    0.0040: real time    0.0058
     EDDAV:  cpu time    1.5280: real time    1.5296
       DOS:  cpu time    0.0000: real time    0.0009
    CHARGE:  cpu time    0.1480: real time    0.1457
    MIXING:  cpu time    0.0000: real time    0.0013
    --------------------------------------------
      LOOP:  cpu time    1.7360: real time    1.7460

 eigenvalue-minimisations  :  1960
 total energy-change (2. order) :-0.1081864E-02  (-0.2189859E-03)
 number of electron     173.9999951 magnetization 
 augmentation part       -9.8707905 magnetization 

 Broyden mixing:
  rms(total) = 0.59515E-02    rms(broyden)= 0.59490E-02
  rms(prec ) = 0.66526E-02
  weight for this iteration     100.00

 eigenvalues of (default mixing * dielectric matrix)
  average eigenvalue GAMMA=   1.0303
  2.8764  2.3336  1.8127  1.1759  1.0556  1.0556  0.6924  0.6924  0.6633  0.6633
  0.2600  0.2871  0.4000  0.4563

 Free energy of the ion-electron system (eV)
  ---------------------------------------------------
  alpha Z        PSCENC =       129.28637346
  Ewald energy   TEWEN  =     33587.23466949
  -Hartree energ DENC   =    -39859.08673276
  -exchange      EXHF   =         0.00000000
  -V(xc)+E(xc)   XCENC  =      -613.84099113
  PAW double counting   =     11055.43045069   -10096.79868466
  entropy T*S    EENTRO =        -1.31470637
  eigenvalues    EBANDS =     -1451.13165155
  atomic energy  EATOM  =      7060.36754918
  Solvation  Ediel_sol  =         0.00000000
  ---------------------------------------------------
  free energy    TOTEN  =      -189.85372364 eV

  energy without entropy =     -188.53901727  energy(sigma->0) =     -189.19637046


--------------------------------------------------------------------------------------------------------




----------------------------------------- Iteration    1(  20)  ---------------------------------------


    POTLOK:  cpu time    0.0560: real time    0.0539
    SETDIJ:  cpu time    0.0040: real time    0.0041
     EDDAV:  cpu time    1.4720: real time    1.4755
       DOS:  cpu time    0.0040: real time    0.0008
    CHARGE:  cpu time    0.1440: real time    0.1458
    MIXING:  cpu time    0.0000: real time    0.0014
    --------------------------------------------
      LOOP:  cpu time    1.6800: real time    1.6893

 eigenvalue-minimisations  :  1864
 total energy-change (2. order) :-0.4820464E-03  (-0.2606116E-04)
 number of electron     173.9999951 magnetization 
 augmentation part       -9.8732088 magnetization 

 Broyden mixing:
  rms(total) = 0.38875E-02    rms(broyden)= 0.38873E-02
  rms(prec ) = 0.46634E-02
  weight for this iteration     100.00

 eigenvalues of (default mixing * dielectric matrix)
  average eigenvalue GAMMA=   1.1299
  3.3637  2.1902  2.1902  1.5475  1.5475  0.9247  0.9247  0.7037  0.7037  0.7249
  0.7249  0.2600  0.2871  0.4550  0.3998

 Free energy of the ion-electron system (eV)
  ---------------------------------------------------
  alpha Z        PSCENC =       129.28637346
  Ewald energy   TEWEN  =     33587.23466949
  -Hartree energ DENC   =    -39859.88355043
  -exchange      EXHF   =         0.00000000
  -V(xc)+E(xc)   XCENC  =      -613.83828420
  PAW double counting   =     11054.95190488   -10096.31682913
  entropy T*S    EENTRO =        -1.31461978
  eigenvalues    EBANDS =     -1450.34141917
  atomic energy  EATOM  =      7060.36754918
  Solvation  Ediel_sol  =         0.00000000
  ---------------------------------------------------
  free energy    TOTEN  =      -189.85420569 eV

  energy without entropy =     -188.53958591  energy(sigma->0) =     -189.19689580


--------------------------------------------------------------------------------------------------------




----------------------------------------- Iteration    1(  21)  ---------------------------------------


    POTLOK:  cpu time    0.0560: real time    0.0558
    SETDIJ:  cpu time    0.0040: real time    0.0041
     EDDAV:  cpu time    1.3720: real time    1.3739
       DOS:  cpu time    0.0000: real time    0.0008
    CHARGE:  cpu time    0.1480: real time    0.1463
    MIXING:  cpu time    0.0000: real time    0.0014
    --------------------------------------------
      LOOP:  cpu time    1.5840: real time    1.5905

 eigenvalue-minimisations  :  1712
 total energy-change (2. order) :-0.1792293E-02  (-0.3791721E-04)
 number of electron     173.9999951 magnetization 
 augmentation part       -9.8750117 magnetization 

 Broyden mixing:
  rms(total) = 0.28963E-02    rms(broyden)= 0.28956E-02
  rms(prec ) = 0.33022E-02
  weight for this iteration     100.00

 eigenvalues of (default mixing * dielectric matrix)
  average eigenvalue GAMMA=   1.1944
  3.3606  3.3606  1.9877  1.9877  1.4250  1.0022  1.0022  0.7005  0.7005  0.7470
  0.7470  0.6876  0.2600  0.2871  0.3998  0.4549

 Free energy of the ion-electron system (eV)
  ---------------------------------------------------
  alpha Z        PSCENC =       129.28637346
  Ewald energy   TEWEN  =     33587.23466949
  -Hartree energ DENC   =    -39863.27238359
  -exchange      EXHF   =         0.00000000
  -V(xc)+E(xc)   XCENC  =      -613.81011942
  PAW double counting   =     11054.43547769   -10095.79447271
  entropy T*S    EENTRO =        -1.31488308
  eigenvalues    EBANDS =     -1446.98820901
  atomic energy  EATOM  =      7060.36754918
  Solvation  Ediel_sol  =         0.00000000
  ---------------------------------------------------
  free energy    TOTEN  =      -189.85599798 eV

  energy without entropy =     -188.54111490  energy(sigma->0) =     -189.19855644


--------------------------------------------------------------------------------------------------------




----------------------------------------- Iteration    1(  22)  ---------------------------------------


    POTLOK:  cpu time    0.0760: real time    0.0778
    SETDIJ:  cpu time    0.0040: real time    0.0040
     EDDAV:  cpu time    1.6040: real time    1.6040
       DOS:  cpu time    0.0000: real time    0.0008
    CHARGE:  cpu time    0.1480: real time    0.1470
    MIXING:  cpu time    0.0040: real time    0.0015
    --------------------------------------------
      LOOP:  cpu time    1.8360: real time    1.8438

 eigenvalue-minimisations  :  2072
 total energy-change (2. order) :-0.8953729E-03  (-0.1981898E-04)
 number of electron     173.9999951 magnetization 
 augmentation part       -9.8786954 magnetization 

 Broyden mixing:
  rms(total) = 0.17641E-02    rms(broyden)= 0.17632E-02
  rms(prec ) = 0.19662E-02
  weight for this iteration     100.00

 eigenvalues of (default mixing * dielectric matrix)
  average eigenvalue GAMMA=   1.2672
  4.6666  3.0430  2.0723  2.0723  1.2819  1.2080  1.2080  0.8956  0.8956  0.7006
  0.7006  0.6977  0.6977  0.2600  0.2871  0.3998  0.4551

 Free energy of the ion-electron system (eV)
  ---------------------------------------------------
  alpha Z        PSCENC =       129.28637346
  Ewald energy   TEWEN  =     33587.23466949
  -Hartree energ DENC   =    -39864.67375677
  -exchange      EXHF   =         0.00000000
  -V(xc)+E(xc)   XCENC  =      -613.80446840
  PAW double counting   =     11052.86353721   -10094.21785744
  entropy T*S    EENTRO =        -1.31492627
  eigenvalues    EBANDS =     -1445.59801383
  atomic energy  EATOM  =      7060.36754918
  Solvation  Ediel_sol  =         0.00000000
  ---------------------------------------------------
  free energy    TOTEN  =      -189.85689336 eV

  energy without entropy =     -188.54196709  energy(sigma->0) =     -189.19943022


--------------------------------------------------------------------------------------------------------




----------------------------------------- Iteration    1(  23)  ---------------------------------------


    POTLOK:  cpu time    0.0520: real time    0.0548
    SETDIJ:  cpu time    0.0040: real time    0.0041
     EDDAV:  cpu time    1.4120: real time    1.4121
       DOS:  cpu time    0.0000: real time    0.0008
    CHARGE:  cpu time    0.1480: real time    0.1465
    MIXING:  cpu time    0.0000: real time    0.0015
    --------------------------------------------
      LOOP:  cpu time    1.6160: real time    1.6283

 eigenvalue-minimisations  :  1768
 total energy-change (2. order) :-0.5385516E-03  (-0.1014125E-04)
 number of electron     173.9999951 magnetization 
 augmentation part       -9.8764814 magnetization 

 Broyden mixing:
  rms(total) = 0.11395E-02    rms(broyden)= 0.11394E-02
  rms(prec ) = 0.12345E-02
  weight for this iteration     100.00

 eigenvalues of (default mixing * dielectric matrix)
  average eigenvalue GAMMA=   1.2794
  5.1377  2.5530  2.2121  2.2121  1.4582  1.4582  1.0944  1.0944  0.7005  0.7005
  0.8255  0.8255  0.6772  0.6772  0.2600  0.2871  0.3998  0.4551

 Free energy of the ion-electron system (eV)
  ---------------------------------------------------
  alpha Z        PSCENC =       129.28637346
  Ewald energy   TEWEN  =     33587.23466949
  -Hartree energ DENC   =    -39865.91030771
  -exchange      EXHF   =         0.00000000
  -V(xc)+E(xc)   XCENC  =      -613.79272892
  PAW double counting   =     11051.67449012   -10093.02784473
  entropy T*S    EENTRO =        -1.31497282
  eigenvalues    EBANDS =     -1444.37465999
  atomic energy  EATOM  =      7060.36754918
  Solvation  Ediel_sol  =         0.00000000
  ---------------------------------------------------
  free energy    TOTEN  =      -189.85743191 eV

  energy without entropy =     -188.54245909  energy(sigma->0) =     -189.19994550


--------------------------------------------------------------------------------------------------------




----------------------------------------- Iteration    1(  24)  ---------------------------------------


    POTLOK:  cpu time    0.0520: real time    0.0554
    SETDIJ:  cpu time    0.0040: real time    0.0040
     EDDAV:  cpu time    1.4480: real time    1.4476
       DOS:  cpu time    0.0000: real time    0.0012
    CHARGE:  cpu time    0.1480: real time    0.1475
    MIXING:  cpu time    0.0040: real time    0.0015
    --------------------------------------------
      LOOP:  cpu time    1.6600: real time    1.6665

 eigenvalue-minimisations  :  1824
 total energy-change (2. order) :-0.1790021E-03  (-0.3730958E-05)
 number of electron     173.9999951 magnetization 
 augmentation part       -9.8760211 magnetization 

 Broyden mixing:
  rms(total) = 0.10625E-02    rms(broyden)= 0.10624E-02
  rms(prec ) = 0.11921E-02
  weight for this iteration     100.00

 eigenvalues of (default mixing * dielectric matrix)
  average eigenvalue GAMMA=   1.3463
  5.9714  2.7365  2.5103  2.0611  2.0611  1.2187  1.2187  1.0076  1.0076  0.7004
  0.7004  0.7872  0.7872  0.7044  0.7044  0.2600  0.2871  0.3998  0.4551

 Free energy of the ion-electron system (eV)
  ---------------------------------------------------
  alpha Z        PSCENC =       129.28637346
  Ewald energy   TEWEN  =     33587.23466949
  -Hartree energ DENC   =    -39866.30018285
  -exchange      EXHF   =         0.00000000
  -V(xc)+E(xc)   XCENC  =      -613.78955393
  PAW double counting   =     11051.72589031   -10093.08078510
  entropy T*S    EENTRO =        -1.31516576
  eigenvalues    EBANDS =     -1443.98640572
  atomic energy  EATOM  =      7060.36754918
  Solvation  Ediel_sol  =         0.00000000
  ---------------------------------------------------
  free energy    TOTEN  =      -189.85761091 eV

  energy without entropy =     -188.54244515  energy(sigma->0) =     -189.20002803


--------------------------------------------------------------------------------------------------------




----------------------------------------- Iteration    1(  25)  ---------------------------------------


    POTLOK:  cpu time    0.0560: real time    0.0575
    SETDIJ:  cpu time    0.0040: real time    0.0041
     EDDAV:  cpu time    1.3960: real time    1.3954
       DOS:  cpu time    0.0000: real time    0.0008
    CHARGE:  cpu time    0.1480: real time    0.1460
    MIXING:  cpu time    0.0000: real time    0.0017
    --------------------------------------------
      LOOP:  cpu time    1.6040: real time    1.6147

 eigenvalue-minimisations  :  1728
 total energy-change (2. order) :-0.2093776E-03  (-0.3393799E-05)
 number of electron     173.9999951 magnetization 
 augmentation part       -9.8771039 magnetization 

 Broyden mixing:
  rms(total) = 0.64948E-03    rms(broyden)= 0.64925E-03
  rms(prec ) = 0.70317E-03
  weight for this iteration     100.00

 eigenvalues of (default mixing * dielectric matrix)
  average eigenvalue GAMMA=   1.3774
  6.6649  2.7585  2.7585  2.0906  1.6789  1.6789  1.1692  1.1692  0.9707  0.9707
  0.6999  0.6999  0.2600  0.2871  0.3998  0.4551  0.7218  0.7218  0.6956  0.6956

 Free energy of the ion-electron system (eV)
  ---------------------------------------------------
  alpha Z        PSCENC =       129.28637346
  Ewald energy   TEWEN  =     33587.23466949
  -Hartree energ DENC   =    -39866.74934066
  -exchange      EXHF   =         0.00000000
  -V(xc)+E(xc)   XCENC  =      -613.78888124
  PAW double counting   =     11051.81609695   -10093.17110769
  entropy T*S    EENTRO =        -1.31487183
  eigenvalues    EBANDS =     -1443.53830795
  atomic energy  EATOM  =      7060.36754918
  Solvation  Ediel_sol  =         0.00000000
  ---------------------------------------------------
  free energy    TOTEN  =      -189.85782029 eV

  energy without entropy =     -188.54294846  energy(sigma->0) =     -189.20038437


--------------------------------------------------------------------------------------------------------




----------------------------------------- Iteration    1(  26)  ---------------------------------------


    POTLOK:  cpu time    0.0560: real time    0.0556
    SETDIJ:  cpu time    0.0040: real time    0.0043
     EDDAV:  cpu time    1.2200: real time    1.2219
       DOS:  cpu time    0.0000: real time    0.0008
    CHARGE:  cpu time    0.1480: real time    0.1471
    MIXING:  cpu time    0.0040: real time    0.0020
    --------------------------------------------
      LOOP:  cpu time    1.4320: real time    1.4393

 eigenvalue-minimisations  :  1432
 total energy-change (2. order) :-0.1020356E-03  (-0.1934408E-05)
 number of electron     173.9999951 magnetization 
 augmentation part       -9.8767423 magnetization 

 Broyden mixing:
  rms(total) = 0.32296E-03    rms(broyden)= 0.32279E-03
  rms(prec ) = 0.37175E-03
  weight for this iteration     100.00

 eigenvalues of (default mixing * dielectric matrix)
  average eigenvalue GAMMA=   1.3779
  6.8499  3.1419  2.4842  2.1300  1.7586  1.7586  1.2153  1.2153  0.9485  0.9485
  0.2600  0.2871  0.6990  0.6990  0.8295  0.7441  0.7441  0.3998  0.4551  0.6836
  0.6836

 Free energy of the ion-electron system (eV)
  ---------------------------------------------------
  alpha Z        PSCENC =       129.28637346
  Ewald energy   TEWEN  =     33587.23466949
  -Hartree energ DENC   =    -39866.96825760
  -exchange      EXHF   =         0.00000000
  -V(xc)+E(xc)   XCENC  =      -613.78757385
  PAW double counting   =     11051.49242365   -10092.84761456
  entropy T*S    EENTRO =        -1.31505803
  eigenvalues    EBANDS =     -1443.32043407
  atomic energy  EATOM  =      7060.36754918
  Solvation  Ediel_sol  =         0.00000000
  ---------------------------------------------------
  free energy    TOTEN  =      -189.85792232 eV

  energy without entropy =     -188.54286429  energy(sigma->0) =     -189.20039331


--------------------------------------------------------------------------------------------------------




----------------------------------------- Iteration    1(  27)  ---------------------------------------


    POTLOK:  cpu time    0.0560: real time    0.0564
    SETDIJ:  cpu time    0.0040: real time    0.0041
     EDDAV:  cpu time    1.0800: real time    1.0809
       DOS:  cpu time    0.0000: real time    0.0009
    CHARGE:  cpu time    0.1480: real time    0.1477
    MIXING:  cpu time    0.0040: real time    0.0019
    --------------------------------------------
      LOOP:  cpu time    1.2920: real time    1.2991

 eigenvalue-minimisations  :  1176
 total energy-change (2. order) :-0.6546042E-04  (-0.1059980E-05)
 number of electron     173.9999951 magnetization 
 augmentation part       -9.8767493 magnetization 

 Broyden mixing:
  rms(total) = 0.30142E-03    rms(broyden)= 0.30139E-03
  rms(prec ) = 0.34520E-03
  weight for this iteration     100.00

 eigenvalues of (default mixing * dielectric matrix)
  average eigenvalue GAMMA=   1.4383
  7.0516  2.8749  2.8749  2.5264  2.1558  1.6848  1.6848  1.1292  1.1292  0.2600
  0.2871  0.9416  0.9416  0.6998  0.6998  0.9283  0.3998  0.4551  0.7544  0.7544
  0.7042  0.7042

 Free energy of the ion-electron system (eV)
  ---------------------------------------------------
  alpha Z        PSCENC =       129.28637346
  Ewald energy   TEWEN  =     33587.23466949
  -Hartree energ DENC   =    -39867.06382698
  -exchange      EXHF   =         0.00000000
  -V(xc)+E(xc)   XCENC  =      -613.78785597
  PAW double counting   =     11051.51301070   -10092.86816159
  entropy T*S    EENTRO =        -1.31508942
  eigenvalues    EBANDS =     -1443.22465666
  atomic energy  EATOM  =      7060.36754918
  Solvation  Ediel_sol  =         0.00000000
  ---------------------------------------------------
  free energy    TOTEN  =      -189.85798778 eV

  energy without entropy =     -188.54289836  energy(sigma->0) =     -189.20044307


--------------------------------------------------------------------------------------------------------




----------------------------------------- Iteration    1(  28)  ---------------------------------------


    POTLOK:  cpu time    0.0560: real time    0.0564
[...]
     95      -1.6384      0.00390
     96      -1.5834      0.00296
     97      -1.5613      0.00265
     98      -1.5458      0.00245
     99      -1.4335      0.00140
    100      -1.4221      0.00132
    101      -1.3434      0.00089
    102      -1.3070      0.00074
    103      -1.2966      0.00071
    104      -1.2359      0.00052

 k-point     7 :       0.0000    0.5000    0.0000
  band No.  band energies     occupation 
      1     -16.6054      2.00000
      2     -16.0640      2.00000
      3     -16.0579      2.00000
      4     -15.9541      2.00000
      5     -15.9541      2.00000
      6     -15.9240      2.00000
      7     -15.9240      2.00000
      8     -15.8892      2.00000
      9     -15.8892      2.00000
     10     -15.8620      2.00000
     11     -15.8616      2.00000
     12     -15.7440      2.00000
     13     -15.7440      2.00000
     14     -15.7108      2.00000
     15     -15.7108      2.00000
     16     -15.6619      2.00000
     17     -15.6619      2.00000
     18     -14.9927      2.00000
     19     -14.9927      2.00000
     20      -9.4195      2.00000
     21      -8.9338      2.00000
     22      -8.9239      2.00000
     23      -8.9090      2.00000
     24      -8.8908      2.00000
     25      -8.5633      2.00000
     26      -8.5071      2.00000
     27      -8.4861      2.00000
     28      -8.4693      2.00000
     29      -8.2055      2.00000
     30      -8.2041      2.00000
     31      -8.1872      2.00000
     32      -8.1811      2.00000
     33      -8.0677      2.00000
     34      -8.0281      2.00000
     35      -8.0279      2.00000
     36      -8.0211      2.00000
     37      -7.9985      2.00000
     38      -7.3253      2.00000
     39      -7.2658      2.00000
     40      -7.2638      2.00000
     41      -7.1861      2.00000
     42      -7.1701      2.00000
     43      -7.1640      2.00000
     44      -7.1525      2.00000
     45      -7.1512      2.00000
     46      -7.1510      2.00000
     47      -7.1075      2.00000
     48      -7.0183      2.00000
     49      -6.9764      2.00000
     50      -6.4407      2.00000
     51      -6.4369      2.00000
     52      -6.3618      2.00000
     53      -6.3462      2.00000
     54      -6.2121      2.00000
     55      -6.2083      2.00000
     56      -6.1906      2.00000
     57      -6.1759      2.00000
     58      -6.1738      2.00000
     59      -6.1586      2.00000
     60      -6.0627      2.00000
     61      -5.9930      2.00000
     62      -5.9184      2.00000
     63      -5.5102      2.00000
     64      -5.4668      2.00000
     65      -5.4238      1.99999
     66      -5.3798      1.99999
     67      -5.2701      1.99999
     68      -5.2675      1.99999
     69      -5.2236      1.99998
     70      -5.2164      1.99998
     71      -5.1718      1.99998
     72      -5.1499      1.99998
     73      -4.5627      1.99954
     74      -4.5008      1.99938
     75      -4.2105      1.99734
     76      -4.2053      1.99727
     77      -3.9950      1.99221
     78      -3.9757      1.99142
     79      -3.8997      1.98748
     80      -3.8103      1.98050
     81      -3.7675      1.97590
     82      -3.7669      1.97583
     83      -3.6576      1.95861
     84      -3.5099      1.91532
     85      -3.5098      1.91529
     86      -2.8723      0.96536
     87      -2.8722      0.96503
     88      -2.6337      0.44121
     89      -2.4725      0.22445
     90      -2.2524      0.08070
     91      -1.9293      0.01658
     92      -1.8436      0.01083
     93      -1.8397      0.01062
     94      -1.5784      0.00289
     95      -1.5353      0.00233
     96      -1.4960      0.00191
     97      -1.4927      0.00188
     98      -1.4681      0.00167
     99      -1.4589      0.00159
    100      -1.4227      0.00133
    101      -1.3790      0.00107
    102      -1.2392      0.00053
    103      -1.2392      0.00053
    104      -1.0494      0.00021


--------------------------------------------------------------------------------------------------------


 soft charge-density along one line, spin component           1
         0         1         2         3         4         5         6         7         8         9
 total charge-density along one line

 pseudopotential strength for first ion, spin component:           1
 -9.987  -0.000   0.000  -0.000   0.000 -10.171  -0.000   0.000
 -0.000  -9.948  -0.000  -0.000   0.000  -0.000 -10.133  -0.000
  0.000  -0.000  -9.970   0.000   0.011   0.000  -0.000 -10.154
 -0.000  -0.000   0.000 -10.005   0.000  -0.000  -0.000   0.000
  0.000   0.000   0.011   0.000  -9.958   0.000   0.000   0.011
-10.171  -0.000   0.000  -0.000   0.000 -10.345  -0.000   0.000
 -0.000 -10.133  -0.000  -0.000   0.000  -0.000 -10.307  -0.000
  0.000  -0.000 -10.154   0.000   0.011   0.000  -0.000 -10.328
 -0.000  -0.000   0.000 -10.189   0.000  -0.000  -0.000   0.000
  0.000   0.000   0.011   0.000 -10.142   0.000   0.000   0.010
  0.000   0.000  -0.005   0.000   0.020   0.000   0.000  -0.005
  0.000   0.000  -0.011   0.000   0.041   0.000   0.000  -0.012
 -0.028   0.000   0.000   0.000   0.000  -0.028   0.000   0.000
  0.000  -0.000   0.000  -0.012   0.000   0.000  -0.000   0.000
 -0.000   0.000   0.015   0.000  -0.010  -0.000   0.000   0.015
 -0.030   0.000   0.000   0.000   0.000  -0.031   0.000   0.000
  0.000  -0.000   0.000  -0.013   0.000   0.000  -0.000   0.000
 -0.000   0.000   0.015   0.000  -0.009  -0.000   0.000   0.016
 total augmentation occupancy for first ion, spin component:           1
  3.286   0.000  -0.000   0.000   0.000  -4.158  -0.000   0.000  -0.000  -0.000  -0.000   0.000   0.343  -0.000   0.000  -0.038
  0.000   1.313  -0.000  -0.000   0.000  -0.000  -0.928  -0.000   0.000  -0.000  -0.000   0.000   0.000   0.000  -0.000  -0.000
 -0.000  -0.000   2.020   0.000  -0.459   0.000  -0.000  -2.309  -0.000   0.256   0.456  -0.039  -0.000  -0.000  -0.351   0.000
  0.000  -0.000   0.000   3.618   0.000  -0.000   0.000  -0.000  -4.659  -0.000  -0.000   0.000  -0.000  -0.557   0.000   0.000
  0.000   0.000  -0.459   0.000   2.552  -0.000  -0.000   0.267  -0.000  -2.631  -0.859   0.070   0.000  -0.000  -0.301   0.000
 -4.158  -0.000   0.000  -0.000  -0.000   5.770   0.000  -0.000   0.000   0.000   0.000   0.000  -0.312   0.000  -0.000   0.027
 -0.000  -0.928  -0.000   0.000  -0.000   0.000   1.581   0.000   0.000   0.000   0.000  -0.000  -0.000   0.000   0.000   0.000
  0.000  -0.000  -2.309  -0.000   0.267  -0.000   0.000   3.563   0.000  -0.113  -0.351   0.041   0.000   0.000   0.416  -0.000
 -0.000   0.000  -0.000  -4.659  -0.000   0.000   0.000   0.000   6.497   0.000   0.000  -0.000   0.000   0.771  -0.000  -0.000
 -0.000  -0.000   0.256  -0.000  -2.631   0.000   0.000  -0.113   0.000   3.789   0.840  -0.055  -0.000  -0.000   0.333   0.000
 -0.000  -0.000   0.456  -0.000  -0.859   0.000   0.000  -0.351   0.000   0.840   1.525  -0.091  -0.000   0.000   0.123   0.000
  0.000   0.000  -0.039   0.000   0.070   0.000  -0.000   0.041  -0.000  -0.055  -0.091   0.008   0.000  -0.000  -0.004  -0.000
  0.343   0.000  -0.000  -0.000   0.000  -0.312  -0.000   0.000   0.000  -0.000  -0.000   0.000   0.221   0.000   0.000  -0.027
 -0.000   0.000  -0.000  -0.557  -0.000   0.000   0.000   0.000   0.771  -0.000   0.000  -0.000   0.000   0.198   0.000  -0.000
  0.000  -0.000  -0.351   0.000  -0.301  -0.000   0.000   0.416  -0.000   0.333   0.123  -0.004   0.000   0.000   0.319  -0.000
 -0.038  -0.000   0.000   0.000   0.000   0.027   0.000  -0.000  -0.000   0.000   0.000  -0.000  -0.027  -0.000  -0.000   0.004
  0.000  -0.000   0.000   0.082   0.000  -0.000  -0.000  -0.000  -0.110   0.000  -0.000   0.000  -0.000  -0.025  -0.000   0.000
 -0.000   0.000   0.049  -0.000   0.040   0.000  -0.000  -0.050   0.000  -0.051  -0.015   0.001  -0.000  -0.000  -0.040   0.000


------------------------ aborting loop because EDIFF is reached ----------------------------------------


    CHARGE:  cpu time    0.1440: real time    0.1463
    FORLOC:  cpu time    0.0040: real time    0.0036
    FORNL :  cpu time    0.2520: real time    0.2495
    STRESS:  cpu time    0.7360: real time    0.7393
    FORCOR:  cpu time    0.0560: real time    0.0538
    FORHAR:  cpu time    0.0160: real time    0.0166
    MIXING:  cpu time    0.0000: real time    0.0007
    OFIELD:  cpu time    0.0000: real time    0.0000

 ---------------------------------------------------------------------------------------------

         DFTD3 V3.0 Rev 1        
 Edisp (eV)   -4.84196

 E6    (eV) :    -1.8012
 E8    (eV) :    -3.0408
 % E8        : 62.80
    FORVDW:  cpu time    0.0720: real time    0.1004

  FORCE on cell =-STRESS in cart. coord.  units (eV):
  Direction    XX          YY          ZZ          XY          YZ          ZX
  --------------------------------------------------------------------------------------
  Alpha Z   129.28637   129.28637   129.28637
  Ewald    2565.29225 38821.54963 -7799.34750     0.00000    -0.00020    -0.00000
  Hartree  4045.99592 39573.74854 -3752.11302    -0.00000    -0.00002    -0.00000
  E(xc)    -701.28511  -699.41093  -706.46000     0.00000     0.00001    -0.00000
  Local   -8755.60274-80541.96956  9373.19256     0.00000     0.00021     0.00000
  n-local   595.00779   583.81469   617.59608    -0.00001    -0.00002    -0.00000
  augment    14.53555    15.81682     8.64431     0.00000     0.00000    -0.00000
  Kinetic  2106.51776  2110.42278  2129.42402     0.00002    -0.00004     0.00001
  Fock        0.00000     0.00000     0.00000     0.00000     0.00000     0.00000
  vdW        -0.59877     0.94239    -1.00658    -0.00000    -0.00000    -0.00000
  -------------------------------------------------------------------------------------
  Total      -0.85097    -5.79926    -0.78376     0.00000    -0.00007     0.00000
  in kB      -0.45058    -3.07066    -0.41500     0.00000    -0.00003     0.00000
  external pressure =       -1.31 kB  Pullay stress =        0.00 kB


 VOLUME and BASIS-vectors are now :
 -----------------------------------------------------------------------------
  energy-cutoff  :      300.00
  volume of cell :     3025.88
      direct lattice vectors                 reciprocal lattice vectors
    46.000000000  0.000000000  0.000000000     0.021739130  0.000000000  0.000000000
     0.000000000  3.289000000  0.000000000     0.000000000  0.304043782  0.000000000
     0.000000000  0.000000000 20.000000000     0.000000000  0.000000000  0.050000000

  length of vectors
    46.000000000  3.289000000 20.000000000     0.021739130  0.304043782  0.050000000


 FORCES acting on ions
    electron-ion (+dipol)            ewald-force                    non-local-force                 convergence-correction
 -----------------------------------------------------------------------------------------------
   0.869E+02 -.715E-04 -.113E-03   -.840E+02 0.642E-04 0.956E-04   -.253E+01 0.564E-04 -.219E-04   0.673E-04 0.120E-04 -.857E-05
   -.199E+03 -.377E-03 -.144E-02   0.199E+03 0.405E-03 0.137E-02   -.888E-01 -.479E-04 -.293E-03   -.914E-04 -.282E-04 -.321E-04
   -.594E+03 -.207E-02 -.125E-02   0.595E+03 0.201E-02 0.122E-02   -.662E+00 0.169E-03 -.204E-05   0.407E-04 0.305E-04 -.288E-04
   -.359E+02 0.780E-03 -.125E-02   0.358E+02 -.785E-03 0.124E-02   -.543E+00 -.183E-04 -.143E-03   0.329E-05 -.130E-04 -.320E-04
   -.380E+03 -.249E-02 -.961E-03   0.380E+03 0.254E-02 0.930E-03   0.452E-01 -.143E-04 -.235E-03   -.719E-04 0.830E-06 -.388E-04
   -.869E+02 -.715E-04 -.113E-03   0.840E+02 0.642E-04 0.956E-04   0.253E+01 0.564E-04 -.219E-04   -.673E-04 0.120E-04 -.857E-05
   0.199E+03 -.377E-03 -.144E-02   -.199E+03 0.405E-03 0.137E-02   0.888E-01 -.479E-04 -.293E-03   0.914E-04 -.282E-04 -.321E-04
   0.594E+03 -.207E-02 -.125E-02   -.595E+03 0.201E-02 0.122E-02   0.662E+00 0.169E-03 -.204E-05   -.407E-04 0.305E-04 -.288E-04
   0.359E+02 0.780E-03 -.125E-02   -.358E+02 -.785E-03 0.124E-02   0.543E+00 -.183E-04 -.143E-03   -.329E-05 -.130E-04 -.320E-04
   0.380E+03 -.249E-02 -.963E-03   -.380E+03 0.254E-02 0.930E-03   -.452E-01 -.143E-04 -.235E-03   0.719E-04 0.830E-06 -.388E-04
   0.175E-12 0.741E-04 0.701E-02   -.568E-13 -.649E-04 -.706E-02   -.124E-22 0.571E-04 0.437E-04   -.537E-11 -.765E-05 -.188E-05
   -.145E+03 0.562E-04 0.469E+03   0.145E+03 -.122E-03 -.472E+03   0.617E-01 -.588E-04 0.250E+01   0.184E-03 0.189E-04 0.166E-04
   -.504E+03 0.893E-03 0.424E+03   0.504E+03 -.784E-03 -.426E+03   0.155E-01 0.340E-04 0.257E+01   0.123E-03 -.170E-04 0.217E-04
   0.189E+02 -.330E-03 0.461E+03   -.195E+02 0.327E-03 -.463E+03   0.623E+00 0.259E-05 0.184E+01   0.418E-03 0.564E-05 -.768E-05
   -.309E+03 0.116E-02 0.460E+03   0.309E+03 -.118E-02 -.463E+03   -.570E-02 0.319E-04 0.258E+01   0.309E-03 0.255E-05 0.486E-04
   -.712E+03 0.653E-03 0.351E-02   0.714E+03 -.611E-03 -.352E-02   -.212E+01 -.209E-04 0.482E-04   -.111E-04 0.390E-05 -.143E-04
   -.145E+03 0.114E-03 -.469E+03   0.145E+03 -.172E-03 0.472E+03   0.617E-01 -.265E-04 -.250E+01   0.161E-03 0.126E-04 -.273E-04
   -.504E+03 0.893E-03 -.424E+03   0.504E+03 -.783E-03 0.426E+03   0.155E-01 0.338E-04 -.257E+01   0.151E-03 -.169E-04 -.317E-04
   0.189E+02 -.305E-03 -.461E+03   -.195E+02 0.309E-03 0.463E+03   0.623E+00 -.777E-05 -.184E+01   0.397E-03 0.657E-06 0.128E-04
   -.309E+03 0.115E-02 -.460E+03   0.309E+03 -.117E-02 0.463E+03   -.569E-02 0.327E-04 -.258E+01   0.318E-03 0.297E-05 -.651E-04
   0.145E+03 0.562E-04 0.469E+03   -.145E+03 -.122E-03 -.472E+03   -.617E-01 -.588E-04 0.250E+01   -.184E-03 0.189E-04 0.166E-04
   0.504E+03 0.893E-03 0.424E+03   -.504E+03 -.784E-03 -.426E+03   -.155E-01 0.340E-04 0.257E+01   -.123E-03 -.170E-04 0.217E-04
   -.189E+02 -.330E-03 0.461E+03   0.195E+02 0.327E-03 -.463E+03   -.623E+00 0.259E-05 0.184E+01   -.418E-03 0.564E-05 -.768E-05
   0.309E+03 0.116E-02 0.460E+03   -.309E+03 -.118E-02 -.463E+03   0.570E-02 0.319E-04 0.258E+01   -.309E-03 0.255E-05 0.486E-04
   0.712E+03 0.653E-03 0.351E-02   -.714E+03 -.611E-03 -.352E-02   0.212E+01 -.209E-04 0.482E-04   0.111E-04 0.390E-05 -.143E-04
   0.145E+03 0.114E-03 -.469E+03   -.145E+03 -.172E-03 0.472E+03   -.617E-01 -.265E-04 -.250E+01   -.161E-03 0.126E-04 -.273E-04
   0.504E+03 0.893E-03 -.424E+03   -.504E+03 -.783E-03 0.426E+03   -.155E-01 0.338E-04 -.257E+01   -.151E-03 -.169E-04 -.317E-04
   -.189E+02 -.305E-03 -.461E+03   0.195E+02 0.309E-03 0.463E+03   -.623E+00 -.777E-05 -.184E+01   -.397E-03 0.657E-06 0.128E-04
   0.309E+03 0.115E-02 -.460E+03   -.309E+03 -.117E-02 0.463E+03   0.569E-02 0.327E-04 -.258E+01   -.318E-03 0.297E-05 -.651E-04
 -----------------------------------------------------------------------------------------------
   0.528E-10 0.173E-03 0.593E-03   -.227E-12 0.971E-13 -.568E-13   0.278E-15 0.388E-03 -.359E-04   -.375E-10 0.234E-04 -.376E-03


 POSITION                                       TOTAL-FORCE (eV/Angst)
 -----------------------------------------------------------------------------------
     24.93751      0.00029     10.00002        -0.000785      0.000039     -0.000056
     30.50269      0.00031     10.00004        -0.000640     -0.000069     -0.000400
     36.22755      0.00017     10.00003        -0.000153      0.000107     -0.000072
     27.67499      1.64479     10.00004        -0.000397     -0.000052     -0.000186
     33.34347      1.64477     10.00004        -0.000928      0.000008     -0.000313
     21.06249      0.00029     10.00002         0.000785      0.000039     -0.000056
     15.49731      0.00031     10.00004         0.000640     -0.000069     -0.000400
      9.77245      0.00017     10.00003         0.000153      0.000107     -0.000072
     18.32501      1.64479     10.00004         0.000397     -0.000052     -0.000186
     12.65653      1.64477     10.00004         0.000928      0.000008     -0.000313
     23.00000      1.64479     10.00000         0.000000      0.000039     -0.000008
     29.55637      1.64482      8.31842        -0.000688     -0.000126      0.000114
     35.26916      1.64469      8.29986        -0.000575      0.000109      0.000376
     26.63653      0.00029      8.29277        -0.000838     -0.000015      0.000178
     32.40557      0.00029      8.32209        -0.000881     -0.000009      0.000068
     38.12368      1.64469     10.00000         0.000101      0.000006      0.000024
     29.55637      1.64482     11.68164        -0.000722     -0.000093      0.000257
     35.26916      1.64469     11.70019        -0.000542      0.000109     -0.000256
     26.63652      0.00029     11.70728        -0.000812     -0.000025     -0.000023
     32.40557      0.00029     11.67796        -0.000852     -0.000008      0.000294
     16.44363      1.64482      8.31842         0.000688     -0.000126      0.000114
     10.73084      1.64469      8.29986         0.000575      0.000109      0.000376
     19.36347      0.00029      8.29277         0.000838     -0.000015      0.000178
     13.59443      0.00029      8.32209         0.000881     -0.000009      0.000068
      7.87632      1.64469     10.00000        -0.000101      0.000006      0.000024
     16.44363      1.64482     11.68164         0.000722     -0.000093      0.000257
     10.73084      1.64469     11.70019         0.000542      0.000109     -0.000256
     19.36348      0.00029     11.70728         0.000812     -0.000025     -0.000023
     13.59443      0.00029     11.67796         0.000852     -0.000008      0.000294
 -----------------------------------------------------------------------------------
    total drift:                                0.000000      0.000585      0.000182


--------------------------------------------------------------------------------------------------------



  FREE ENERGIE OF THE ION-ELECTRON SYSTEM (eV)
  ---------------------------------------------------
  free  energy   TOTEN  =      -194.70007276 eV

  energy  without entropy=     -193.38490310  energy(sigma->0) =     -194.04248793

 d Force = 0.4812666E-06[ 0.406E-06, 0.557E-06]  d Energy = 0.7632755E-06-0.282E-06
 d Force =-0.1272762E+00[-0.127E+00,-0.127E+00]  d Ewald  =-0.1272762E+00-0.551E-09


--------------------------------------------------------------------------------------------------------


    POTLOK:  cpu time    0.0600: real time    0.0618


--------------------------------------------------------------------------------------------------------


 Quasi-Newton relaxation of ions (Broydens 2nd method)
  g(Force)  = 0.708E-06   g(Stress)= 0.000E+00

 retain information from N=  1 steps
 eigenvalues of (default step * inverse Hessian matrix)
  average eigenvalue of G=   0.4426
 eigenvalue spectrum of G is  0.4426


--------------------------------------------------------------------------------------------------------


  
 reached required accuracy - stopping structural energy minimisation
     LOOP+:  cpu time    9.0400: real time    9.1487
    4ORBIT:  cpu time    0.0000: real time    0.0000

 total amount of memory used by VASP on root node    41218. kBytes
========================================================================

   base      :      30000. kBytes
   nonlr-proj:       4157. kBytes
   fftplans  :       1876. kBytes
   grid      :       2778. kBytes
   one-center:         31. kBytes
   wavefun   :       2376. kBytes

  
  
 General timing and accounting informations for this job:
 ========================================================
  
                  Total CPU time used (sec):       88.660
                            User time (sec):       87.624
                          System time (sec):        1.036
                         Elapsed time (sec):       91.584
  
                   Maximum memory used (kb):       63004.
                   Average memory used (kb):           0.
  
                          Minor page faults:       203713
                          Major page faults:           25
                 Voluntary context switches:         5444
